n -t * -s 0  -x 144 -y 302 -Z 0 -z 20  -v circle -c black
n -t * -s 1  -x 482 -y 385 -Z 0 -z 20  -v circle -c black
n -t * -s 2  -x 362 -y 176 -Z 0 -z 20  -v circle -c black
n -t * -s 3  -x 142 -y 243 -Z 0 -z 20  -v circle -c black
n -t * -s 4  -x 134 -y 53 -Z 0 -z 20  -v circle -c black
n -t * -s 5  -x 397 -y 99 -Z 0 -z 20  -v circle -c black
n -t * -s 6  -x 10 -y 268 -Z 0 -z 20  -v circle -c black
n -t * -s 7  -x 429 -y 327 -Z 0 -z 20  -v circle -c black
n -t * -s 8  -x 451 -y 264 -Z 0 -z 20  -v circle -c black
n -t * -s 9  -x 397 -y 369 -Z 0 -z 20  -v circle -c black
n -t * -s 10  -x 49 -y 490 -Z 0 -z 20  -v circle -c black
n -t * -s 11  -x 326 -y 277 -Z 0 -z 20  -v circle -c black
n -t * -s 12  -x 393 -y 264 -Z 0 -z 20  -v circle -c black
n -t * -s 13  -x 384 -y 359 -Z 0 -z 20  -v circle -c black
n -t * -s 14  -x 101 -y 229 -Z 0 -z 20  -v circle -c black
n -t * -s 15  -x 141 -y 78 -Z 0 -z 20  -v circle -c black
n -t * -s 16  -x 450 -y 500 -Z 0 -z 20  -v circle -c black
n -t * -s 17  -x 192 -y 351 -Z 0 -z 20  -v circle -c black
n -t * -s 18  -x 150 -y 57 -Z 0 -z 20  -v circle -c black
n -t * -s 19  -x 481 -y 8 -Z 0 -z 20  -v circle -c black
n -t * -s 20  -x 240 -y 48 -Z 0 -z 20  -v circle -c black
n -t * -s 21  -x 276 -y 42 -Z 0 -z 20  -v circle -c black
n -t * -s 22  -x 72 -y 470 -Z 0 -z 20  -v circle -c black
n -t * -s 23  -x 33 -y 202 -Z 0 -z 20  -v circle -c black
n -t * -s 24  -x 150 -y 95 -Z 0 -z 20  -v circle -c black
n -t * -s 25  -x 44 -y 58 -Z 0 -z 20  -v circle -c black
n -t * -s 26  -x 40 -y 236 -Z 0 -z 20  -v circle -c black
n -t * -s 27  -x 242 -y 148 -Z 0 -z 20  -v circle -c black
n -t * -s 28  -x 96 -y 19 -Z 0 -z 20  -v circle -c black
n -t * -s 29  -x 468 -y 295 -Z 0 -z 20  -v circle -c black
n -t * -s 30  -x 275 -y 470 -Z 0 -z 20  -v circle -c black
n -t * -s 31  -x 492 -y 15 -Z 0 -z 20  -v circle -c black
n -t * -s 32  -x 8 -y 264 -Z 0 -z 20  -v circle -c black
n -t * -s 33  -x 435 -y 474 -Z 0 -z 20  -v circle -c black
n -t * -s 34  -x 398 -y 404 -Z 0 -z 20  -v circle -c black
n -t * -s 35  -x 472 -y 256 -Z 0 -z 20  -v circle -c black
n -t * -s 36  -x 248 -y 482 -Z 0 -z 20  -v circle -c black
n -t * -s 37  -x 408 -y 132 -Z 0 -z 20  -v circle -c black
n -t * -s 38  -x 438 -y 413 -Z 0 -z 20  -v circle -c black
n -t * -s 39  -x 469 -y 432 -Z 0 -z 20  -v circle -c black
V -t * -v 1.0a5 -a 0
W -t * -x 500 -y 500
A -t * -n 1 -p 0 -o 0x7fffffff -c 30 -a 1
A -t * -h 1 -m 1073741823 -s 0
+ -t 0.009062526 -s 0 -d -1 -p message -e 32 -c 2 -a 0 -i 0 -k RTR 
- -t 0.009062526 -s 0 -d -1 -p message -e 32 -c 2 -a 0 -i 0 -k RTR
h -t 0.009062526 -s 0 -d -1 -p message -e 32 -c 2 -a 0 -i 0 -k RTR
r -t 0.012152723 -s 3 -d -1 -p message -e 32 -c 2 -a 0 -i 0 -k RTR
r -t 0.012152755 -s 17 -d -1 -p message -e 32 -c 2 -a 0 -i 0 -k RTR
r -t 0.012152808 -s 14 -d -1 -p message -e 32 -c 2 -a 0 -i 0 -k RTR
r -t 0.012152937 -s 26 -d -1 -p message -e 32 -c 2 -a 0 -i 0 -k RTR
r -t 0.012152987 -s 6 -d -1 -p message -e 32 -c 2 -a 0 -i 0 -k RTR
r -t 0.012152997 -s 32 -d -1 -p message -e 32 -c 2 -a 0 -i 0 -k RTR
r -t 0.012153024 -s 23 -d -1 -p message -e 32 -c 2 -a 0 -i 0 -k RTR
r -t 0.012153134 -s 27 -d -1 -p message -e 32 -c 2 -a 0 -i 0 -k RTR
r -t 0.012153135 -s 22 -d -1 -p message -e 32 -c 2 -a 0 -i 0 -k RTR
r -t 0.012153138 -s 11 -d -1 -p message -e 32 -c 2 -a 0 -i 0 -k RTR
r -t 0.012153216 -s 24 -d -1 -p message -e 32 -c 2 -a 0 -i 0 -k RTR
r -t 0.012153219 -s 36 -d -1 -p message -e 32 -c 2 -a 0 -i 0 -k RTR
r -t 0.012153228 -s 10 -d -1 -p message -e 32 -c 2 -a 0 -i 0 -k RTR
r -t 0.012153236 -s 30 -d -1 -p message -e 32 -c 2 -a 0 -i 0 -k RTR
r -t 0.012153273 -s 15 -d -1 -p message -e 32 -c 2 -a 0 -i 0 -k RTR
r -t 0.012153343 -s 18 -d -1 -p message -e 32 -c 2 -a 0 -i 0 -k RTR
r -t 0.012153348 -s 13 -d -1 -p message -e 32 -c 2 -a 0 -i 0 -k RTR
r -t 0.012153357 -s 4 -d -1 -p message -e 32 -c 2 -a 0 -i 0 -k RTR
+ -t 0.012485549 -s 8 -d -1 -p message -e 32 -c 2 -a 0 -i 1 -k RTR 
- -t 0.012485549 -s 8 -d -1 -p message -e 32 -c 2 -a 0 -i 1 -k RTR
h -t 0.012485549 -s 8 -d -1 -p message -e 32 -c 2 -a 0 -i 1 -k RTR
r -t 0.015575624 -s 35 -d -1 -p message -e 32 -c 2 -a 0 -i 1 -k RTR
r -t 0.015575667 -s 29 -d -1 -p message -e 32 -c 2 -a 0 -i 1 -k RTR
r -t 0.015575743 -s 12 -d -1 -p message -e 32 -c 2 -a 0 -i 1 -k RTR
r -t 0.015575772 -s 7 -d -1 -p message -e 32 -c 2 -a 0 -i 1 -k RTR
r -t 0.015575937 -s 13 -d -1 -p message -e 32 -c 2 -a 0 -i 1 -k RTR
r -t 0.015575943 -s 9 -d -1 -p message -e 32 -c 2 -a 0 -i 1 -k RTR
r -t 0.015575966 -s 1 -d -1 -p message -e 32 -c 2 -a 0 -i 1 -k RTR
r -t 0.015575967 -s 2 -d -1 -p message -e 32 -c 2 -a 0 -i 1 -k RTR
r -t 0.015575968 -s 11 -d -1 -p message -e 32 -c 2 -a 0 -i 1 -k RTR
r -t 0.015576012 -s 37 -d -1 -p message -e 32 -c 2 -a 0 -i 1 -k RTR
r -t 0.015576048 -s 38 -d -1 -p message -e 32 -c 2 -a 0 -i 1 -k RTR
r -t 0.015576048 -s 34 -d -1 -p message -e 32 -c 2 -a 0 -i 1 -k RTR
r -t 0.015576113 -s 39 -d -1 -p message -e 32 -c 2 -a 0 -i 1 -k RTR
r -t 0.015576128 -s 5 -d -1 -p message -e 32 -c 2 -a 0 -i 1 -k RTR
r -t 0.015576251 -s 33 -d -1 -p message -e 32 -c 2 -a 0 -i 1 -k RTR
r -t 0.015576336 -s 16 -d -1 -p message -e 32 -c 2 -a 0 -i 1 -k RTR
r -t 0.015576346 -s 27 -d -1 -p message -e 32 -c 2 -a 0 -i 1 -k RTR
+ -t 0.032581333 -s 21 -d -1 -p message -e 32 -c 2 -a 0 -i 2 -k RTR 
- -t 0.032581333 -s 21 -d -1 -p message -e 32 -c 2 -a 0 -i 2 -k RTR
h -t 0.032581333 -s 21 -d -1 -p message -e 32 -c 2 -a 0 -i 2 -k RTR
r -t 0.035671455 -s 20 -d -1 -p message -e 32 -c 2 -a 0 -i 2 -k RTR
r -t 0.035671704 -s 27 -d -1 -p message -e 32 -c 2 -a 0 -i 2 -k RTR
r -t 0.035671756 -s 18 -d -1 -p message -e 32 -c 2 -a 0 -i 2 -k RTR
r -t 0.035671779 -s 5 -d -1 -p message -e 32 -c 2 -a 0 -i 2 -k RTR
r -t 0.035671789 -s 24 -d -1 -p message -e 32 -c 2 -a 0 -i 2 -k RTR
r -t 0.035671799 -s 15 -d -1 -p message -e 32 -c 2 -a 0 -i 2 -k RTR
r -t 0.035671808 -s 4 -d -1 -p message -e 32 -c 2 -a 0 -i 2 -k RTR
r -t 0.035671864 -s 2 -d -1 -p message -e 32 -c 2 -a 0 -i 2 -k RTR
r -t 0.035671866 -s 37 -d -1 -p message -e 32 -c 2 -a 0 -i 2 -k RTR
r -t 0.035671938 -s 28 -d -1 -p message -e 32 -c 2 -a 0 -i 2 -k RTR
r -t 0.035672026 -s 19 -d -1 -p message -e 32 -c 2 -a 0 -i 2 -k RTR
r -t 0.035672059 -s 31 -d -1 -p message -e 32 -c 2 -a 0 -i 2 -k RTR
r -t 0.035672108 -s 25 -d -1 -p message -e 32 -c 2 -a 0 -i 2 -k RTR
r -t 0.035672134 -s 11 -d -1 -p message -e 32 -c 2 -a 0 -i 2 -k RTR
r -t 0.035672139 -s 3 -d -1 -p message -e 32 -c 2 -a 0 -i 2 -k RTR
+ -t 0.067874479 -s 5 -d -1 -p message -e 32 -c 2 -a 0 -i 4 -k RTR 
- -t 0.067874479 -s 5 -d -1 -p message -e 32 -c 2 -a 0 -i 4 -k RTR
h -t 0.067874479 -s 5 -d -1 -p message -e 32 -c 2 -a 0 -i 4 -k RTR
+ -t 0.070253651 -s 14 -d -1 -p message -e 32 -c 2 -a 0 -i 3 -k RTR 
- -t 0.070253651 -s 14 -d -1 -p message -e 32 -c 2 -a 0 -i 3 -k RTR
h -t 0.070253651 -s 14 -d -1 -p message -e 32 -c 2 -a 0 -i 3 -k RTR
r -t 0.071604595 -s 37 -d -1 -p message -e 32 -c 2 -a 0 -i 4 -k RTR
r -t 0.071604761 -s 2 -d -1 -p message -e 32 -c 2 -a 0 -i 4 -k RTR
r -t 0.071604892 -s 19 -d -1 -p message -e 32 -c 2 -a 0 -i 4 -k RTR
r -t 0.071604902 -s 31 -d -1 -p message -e 32 -c 2 -a 0 -i 4 -k RTR
r -t 0.071604925 -s 21 -d -1 -p message -e 32 -c 2 -a 0 -i 4 -k RTR
r -t 0.071605021 -s 27 -d -1 -p message -e 32 -c 2 -a 0 -i 4 -k RTR
r -t 0.071605030 -s 12 -d -1 -p message -e 32 -c 2 -a 0 -i 4 -k RTR
r -t 0.071605030 -s 20 -d -1 -p message -e 32 -c 2 -a 0 -i 4 -k RTR
r -t 0.071605058 -s 8 -d -1 -p message -e 32 -c 2 -a 0 -i 4 -k RTR
r -t 0.071605059 -s 35 -d -1 -p message -e 32 -c 2 -a 0 -i 4 -k RTR
r -t 0.071605118 -s 11 -d -1 -p message -e 32 -c 2 -a 0 -i 4 -k RTR
r -t 0.071605174 -s 29 -d -1 -p message -e 32 -c 2 -a 0 -i 4 -k RTR
r -t 0.071605247 -s 7 -d -1 -p message -e 32 -c 2 -a 0 -i 4 -k RTR
r -t 0.071605303 -s 24 -d -1 -p message -e 32 -c 2 -a 0 -i 4 -k RTR
r -t 0.074623795 -s 3 -d -1 -p message -e 32 -c 2 -a 0 -i 3 -k RTR
r -t 0.074623855 -s 26 -d -1 -p message -e 32 -c 2 -a 0 -i 3 -k RTR
r -t 0.074623895 -s 23 -d -1 -p message -e 32 -c 2 -a 0 -i 3 -k RTR
r -t 0.074623933 -s 0 -d -1 -p message -e 32 -c 2 -a 0 -i 3 -k RTR
r -t 0.074623981 -s 6 -d -1 -p message -e 32 -c 2 -a 0 -i 3 -k RTR
r -t 0.074623982 -s 32 -d -1 -p message -e 32 -c 2 -a 0 -i 3 -k RTR
r -t 0.074624126 -s 24 -d -1 -p message -e 32 -c 2 -a 0 -i 3 -k RTR
r -t 0.074624158 -s 17 -d -1 -p message -e 32 -c 2 -a 0 -i 3 -k RTR
r -t 0.074624171 -s 15 -d -1 -p message -e 32 -c 2 -a 0 -i 3 -k RTR
r -t 0.074624193 -s 27 -d -1 -p message -e 32 -c 2 -a 0 -i 3 -k RTR
r -t 0.074624247 -s 18 -d -1 -p message -e 32 -c 2 -a 0 -i 3 -k RTR
r -t 0.074624248 -s 4 -d -1 -p message -e 32 -c 2 -a 0 -i 3 -k RTR
r -t 0.074624252 -s 25 -d -1 -p message -e 32 -c 2 -a 0 -i 3 -k RTR
r -t 0.074624351 -s 28 -d -1 -p message -e 32 -c 2 -a 0 -i 3 -k RTR
r -t 0.074624412 -s 20 -d -1 -p message -e 32 -c 2 -a 0 -i 3 -k RTR
r -t 0.074624418 -s 11 -d -1 -p message -e 32 -c 2 -a 0 -i 3 -k RTR
r -t 0.074624460 -s 22 -d -1 -p message -e 32 -c 2 -a 0 -i 3 -k RTR
+ -t 0.137992435 -s 38 -d -1 -p message -e 32 -c 2 -a 0 -i 5 -k RTR 
- -t 0.137992435 -s 38 -d -1 -p message -e 32 -c 2 -a 0 -i 5 -k RTR
h -t 0.137992435 -s 38 -d -1 -p message -e 32 -c 2 -a 0 -i 5 -k RTR
r -t 0.142042556 -s 39 -d -1 -p message -e 32 -c 2 -a 0 -i 5 -k RTR
r -t 0.142042572 -s 34 -d -1 -p message -e 32 -c 2 -a 0 -i 5 -k RTR
r -t 0.142042609 -s 1 -d -1 -p message -e 32 -c 2 -a 0 -i 5 -k RTR
r -t 0.142042636 -s 9 -d -1 -p message -e 32 -c 2 -a 0 -i 5 -k RTR
r -t 0.142042639 -s 33 -d -1 -p message -e 32 -c 2 -a 0 -i 5 -k RTR
r -t 0.142042690 -s 13 -d -1 -p message -e 32 -c 2 -a 0 -i 5 -k RTR
r -t 0.142042723 -s 7 -d -1 -p message -e 32 -c 2 -a 0 -i 5 -k RTR
r -t 0.142042728 -s 16 -d -1 -p message -e 32 -c 2 -a 0 -i 5 -k RTR
r -t 0.142042841 -s 29 -d -1 -p message -e 32 -c 2 -a 0 -i 5 -k RTR
r -t 0.142042934 -s 8 -d -1 -p message -e 32 -c 2 -a 0 -i 5 -k RTR
r -t 0.142042954 -s 12 -d -1 -p message -e 32 -c 2 -a 0 -i 5 -k RTR
r -t 0.142042971 -s 35 -d -1 -p message -e 32 -c 2 -a 0 -i 5 -k RTR
r -t 0.142043011 -s 30 -d -1 -p message -e 32 -c 2 -a 0 -i 5 -k RTR
r -t 0.142043022 -s 11 -d -1 -p message -e 32 -c 2 -a 0 -i 5 -k RTR
r -t 0.142043109 -s 36 -d -1 -p message -e 32 -c 2 -a 0 -i 5 -k RTR
r -t 0.142043265 -s 2 -d -1 -p message -e 32 -c 2 -a 0 -i 5 -k RTR
+ -t 0.168377720 -s 1 -d -1 -p message -e 32 -c 2 -a 0 -i 6 -k RTR 
- -t 0.168377720 -s 1 -d -1 -p message -e 32 -c 2 -a 0 -i 6 -k RTR
h -t 0.168377720 -s 1 -d -1 -p message -e 32 -c 2 -a 0 -i 6 -k RTR
r -t 0.173067883 -s 39 -d -1 -p message -e 32 -c 2 -a 0 -i 6 -k RTR
r -t 0.173067894 -s 38 -d -1 -p message -e 32 -c 2 -a 0 -i 6 -k RTR
r -t 0.173067982 -s 7 -d -1 -p message -e 32 -c 2 -a 0 -i 6 -k RTR
r -t 0.173068007 -s 34 -d -1 -p message -e 32 -c 2 -a 0 -i 6 -k RTR
r -t 0.173068008 -s 9 -d -1 -p message -e 32 -c 2 -a 0 -i 6 -k RTR
r -t 0.173068024 -s 29 -d -1 -p message -e 32 -c 2 -a 0 -i 6 -k RTR
r -t 0.173068055 -s 33 -d -1 -p message -e 32 -c 2 -a 0 -i 6 -k RTR
r -t 0.173068058 -s 13 -d -1 -p message -e 32 -c 2 -a 0 -i 6 -k RTR
r -t 0.173068118 -s 16 -d -1 -p message -e 32 -c 2 -a 0 -i 6 -k RTR
r -t 0.173068136 -s 8 -d -1 -p message -e 32 -c 2 -a 0 -i 6 -k RTR
r -t 0.173068151 -s 35 -d -1 -p message -e 32 -c 2 -a 0 -i 6 -k RTR
r -t 0.173068221 -s 12 -d -1 -p message -e 32 -c 2 -a 0 -i 6 -k RTR
r -t 0.173068352 -s 11 -d -1 -p message -e 32 -c 2 -a 0 -i 6 -k RTR
r -t 0.173068466 -s 30 -d -1 -p message -e 32 -c 2 -a 0 -i 6 -k RTR
r -t 0.173068523 -s 2 -d -1 -p message -e 32 -c 2 -a 0 -i 6 -k RTR
+ -t 0.243707767 -s 25 -d -1 -p message -e 32 -c 2 -a 0 -i 7 -k RTR 
- -t 0.243707767 -s 25 -d -1 -p message -e 32 -c 2 -a 0 -i 7 -k RTR
h -t 0.243707767 -s 25 -d -1 -p message -e 32 -c 2 -a 0 -i 7 -k RTR
r -t 0.247117984 -s 28 -d -1 -p message -e 32 -c 2 -a 0 -i 7 -k RTR
r -t 0.247118067 -s 4 -d -1 -p message -e 32 -c 2 -a 0 -i 7 -k RTR
r -t 0.247118097 -s 15 -d -1 -p message -e 32 -c 2 -a 0 -i 7 -k RTR
r -t 0.247118120 -s 18 -d -1 -p message -e 32 -c 2 -a 0 -i 7 -k RTR
r -t 0.247118141 -s 24 -d -1 -p message -e 32 -c 2 -a 0 -i 7 -k RTR
r -t 0.247118248 -s 23 -d -1 -p message -e 32 -c 2 -a 0 -i 7 -k RTR
r -t 0.247118360 -s 26 -d -1 -p message -e 32 -c 2 -a 0 -i 7 -k RTR
r -t 0.247118368 -s 14 -d -1 -p message -e 32 -c 2 -a 0 -i 7 -k RTR
r -t 0.247118421 -s 20 -d -1 -p message -e 32 -c 2 -a 0 -i 7 -k RTR
r -t 0.247118464 -s 32 -d -1 -p message -e 32 -c 2 -a 0 -i 7 -k RTR
r -t 0.247118465 -s 3 -d -1 -p message -e 32 -c 2 -a 0 -i 7 -k RTR
r -t 0.247118476 -s 6 -d -1 -p message -e 32 -c 2 -a 0 -i 7 -k RTR
r -t 0.247118492 -s 27 -d -1 -p message -e 32 -c 2 -a 0 -i 7 -k RTR
r -t 0.247118542 -s 21 -d -1 -p message -e 32 -c 2 -a 0 -i 7 -k RTR
+ -t 0.322207733 -s 36 -d -1 -p message -e 32 -c 2 -a 0 -i 8 -k RTR 
- -t 0.322207733 -s 36 -d -1 -p message -e 32 -c 2 -a 0 -i 8 -k RTR
h -t 0.322207733 -s 36 -d -1 -p message -e 32 -c 2 -a 0 -i 8 -k RTR
r -t 0.325617832 -s 30 -d -1 -p message -e 32 -c 2 -a 0 -i 8 -k RTR
r -t 0.325618208 -s 17 -d -1 -p message -e 32 -c 2 -a 0 -i 8 -k RTR
r -t 0.325618297 -s 34 -d -1 -p message -e 32 -c 2 -a 0 -i 8 -k RTR
r -t 0.325618321 -s 22 -d -1 -p message -e 32 -c 2 -a 0 -i 8 -k RTR
r -t 0.325618344 -s 13 -d -1 -p message -e 32 -c 2 -a 0 -i 8 -k RTR
r -t 0.325618357 -s 9 -d -1 -p message -e 32 -c 2 -a 0 -i 8 -k RTR
r -t 0.325618357 -s 33 -d -1 -p message -e 32 -c 2 -a 0 -i 8 -k RTR
r -t 0.325618397 -s 10 -d -1 -p message -e 32 -c 2 -a 0 -i 8 -k RTR
r -t 0.325618407 -s 38 -d -1 -p message -e 32 -c 2 -a 0 -i 8 -k RTR
r -t 0.325618409 -s 16 -d -1 -p message -e 32 -c 2 -a 0 -i 8 -k RTR
r -t 0.325618426 -s 0 -d -1 -p message -e 32 -c 2 -a 0 -i 8 -k RTR
r -t 0.325618464 -s 11 -d -1 -p message -e 32 -c 2 -a 0 -i 8 -k RTR
r -t 0.325618488 -s 39 -d -1 -p message -e 32 -c 2 -a 0 -i 8 -k RTR
r -t 0.325618528 -s 7 -d -1 -p message -e 32 -c 2 -a 0 -i 8 -k RTR
+ -t 0.345066634 -s 13 -d -1 -p message -e 32 -c 2 -a 0 -i 9 -k RTR 
- -t 0.345066634 -s 13 -d -1 -p message -e 32 -c 2 -a 0 -i 9 -k RTR
h -t 0.345066634 -s 13 -d -1 -p message -e 32 -c 2 -a 0 -i 9 -k RTR
r -t 0.348796688 -s 9 -d -1 -p message -e 32 -c 2 -a 0 -i 9 -k RTR
r -t 0.348796791 -s 34 -d -1 -p message -e 32 -c 2 -a 0 -i 9 -k RTR
r -t 0.348796818 -s 7 -d -1 -p message -e 32 -c 2 -a 0 -i 9 -k RTR
r -t 0.348796888 -s 38 -d -1 -p message -e 32 -c 2 -a 0 -i 9 -k RTR
r -t 0.348796952 -s 12 -d -1 -p message -e 32 -c 2 -a 0 -i 9 -k RTR
r -t 0.348796968 -s 11 -d -1 -p message -e 32 -c 2 -a 0 -i 9 -k RTR
r -t 0.348796972 -s 1 -d -1 -p message -e 32 -c 2 -a 0 -i 9 -k RTR
r -t 0.348796986 -s 29 -d -1 -p message -e 32 -c 2 -a 0 -i 9 -k RTR
r -t 0.348797007 -s 39 -d -1 -p message -e 32 -c 2 -a 0 -i 9 -k RTR
r -t 0.348797021 -s 8 -d -1 -p message -e 32 -c 2 -a 0 -i 9 -k RTR
r -t 0.348797053 -s 33 -d -1 -p message -e 32 -c 2 -a 0 -i 9 -k RTR
r -t 0.348797085 -s 35 -d -1 -p message -e 32 -c 2 -a 0 -i 9 -k RTR
r -t 0.348797152 -s 30 -d -1 -p message -e 32 -c 2 -a 0 -i 9 -k RTR
r -t 0.348797153 -s 16 -d -1 -p message -e 32 -c 2 -a 0 -i 9 -k RTR
r -t 0.348797245 -s 36 -d -1 -p message -e 32 -c 2 -a 0 -i 9 -k RTR
r -t 0.348797248 -s 2 -d -1 -p message -e 32 -c 2 -a 0 -i 9 -k RTR
r -t 0.348797274 -s 17 -d -1 -p message -e 32 -c 2 -a 0 -i 9 -k RTR
r -t 0.348797394 -s 37 -d -1 -p message -e 32 -c 2 -a 0 -i 9 -k RTR
r -t 0.348797456 -s 0 -d -1 -p message -e 32 -c 2 -a 0 -i 9 -k RTR
+ -t 0.355428466 -s 39 -d -1 -p message -e 32 -c 2 -a 0 -i 10 -k RTR 
- -t 0.355428466 -s 39 -d -1 -p message -e 32 -c 2 -a 0 -i 10 -k RTR
h -t 0.355428466 -s 39 -d -1 -p message -e 32 -c 2 -a 0 -i 10 -k RTR
r -t 0.359798587 -s 38 -d -1 -p message -e 32 -c 2 -a 0 -i 10 -k RTR
r -t 0.359798628 -s 1 -d -1 -p message -e 32 -c 2 -a 0 -i 10 -k RTR
r -t 0.359798646 -s 33 -d -1 -p message -e 32 -c 2 -a 0 -i 10 -k RTR
r -t 0.359798701 -s 16 -d -1 -p message -e 32 -c 2 -a 0 -i 10 -k RTR
r -t 0.359798720 -s 34 -d -1 -p message -e 32 -c 2 -a 0 -i 10 -k RTR
r -t 0.359798785 -s 9 -d -1 -p message -e 32 -c 2 -a 0 -i 10 -k RTR
r -t 0.359798839 -s 13 -d -1 -p message -e 32 -c 2 -a 0 -i 10 -k RTR
r -t 0.359798840 -s 7 -d -1 -p message -e 32 -c 2 -a 0 -i 10 -k RTR
r -t 0.359798923 -s 29 -d -1 -p message -e 32 -c 2 -a 0 -i 10 -k RTR
r -t 0.359799029 -s 8 -d -1 -p message -e 32 -c 2 -a 0 -i 10 -k RTR
r -t 0.359799053 -s 35 -d -1 -p message -e 32 -c 2 -a 0 -i 10 -k RTR
r -t 0.359799081 -s 12 -d -1 -p message -e 32 -c 2 -a 0 -i 10 -k RTR
r -t 0.359799125 -s 30 -d -1 -p message -e 32 -c 2 -a 0 -i 10 -k RTR
r -t 0.359799169 -s 11 -d -1 -p message -e 32 -c 2 -a 0 -i 10 -k RTR
r -t 0.359799221 -s 36 -d -1 -p message -e 32 -c 2 -a 0 -i 10 -k RTR
+ -t 0.416848814 -s 20 -d -1 -p message -e 32 -c 2 -a 0 -i 11 -k RTR 
- -t 0.416848814 -s 20 -d -1 -p message -e 32 -c 2 -a 0 -i 11 -k RTR
h -t 0.416848814 -s 20 -d -1 -p message -e 32 -c 2 -a 0 -i 11 -k RTR
r -t 0.421538936 -s 21 -d -1 -p message -e 32 -c 2 -a 0 -i 11 -k RTR
r -t 0.421539116 -s 18 -d -1 -p message -e 32 -c 2 -a 0 -i 11 -k RTR
r -t 0.421539148 -s 27 -d -1 -p message -e 32 -c 2 -a 0 -i 11 -k RTR
r -t 0.421539153 -s 24 -d -1 -p message -e 32 -c 2 -a 0 -i 11 -k RTR
r -t 0.421539159 -s 15 -d -1 -p message -e 32 -c 2 -a 0 -i 11 -k RTR
r -t 0.421539168 -s 4 -d -1 -p message -e 32 -c 2 -a 0 -i 11 -k RTR
r -t 0.421539304 -s 28 -d -1 -p message -e 32 -c 2 -a 0 -i 11 -k RTR
r -t 0.421539365 -s 5 -d -1 -p message -e 32 -c 2 -a 0 -i 11 -k RTR
r -t 0.421539404 -s 2 -d -1 -p message -e 32 -c 2 -a 0 -i 11 -k RTR
r -t 0.421539440 -s 37 -d -1 -p message -e 32 -c 2 -a 0 -i 11 -k RTR
r -t 0.421539469 -s 25 -d -1 -p message -e 32 -c 2 -a 0 -i 11 -k RTR
r -t 0.421539542 -s 3 -d -1 -p message -e 32 -c 2 -a 0 -i 11 -k RTR
r -t 0.421539575 -s 14 -d -1 -p message -e 32 -c 2 -a 0 -i 11 -k RTR
r -t 0.421539629 -s 19 -d -1 -p message -e 32 -c 2 -a 0 -i 11 -k RTR
r -t 0.421539630 -s 11 -d -1 -p message -e 32 -c 2 -a 0 -i 11 -k RTR
+ -t 0.434421339 -s 27 -d -1 -p message -e 32 -c 2 -a 0 -i 12 -k RTR 
- -t 0.434421339 -s 27 -d -1 -p message -e 32 -c 2 -a 0 -i 12 -k RTR
h -t 0.434421339 -s 27 -d -1 -p message -e 32 -c 2 -a 0 -i 12 -k RTR
r -t 0.437831672 -s 20 -d -1 -p message -e 32 -c 2 -a 0 -i 12 -k RTR
r -t 0.437831693 -s 24 -d -1 -p message -e 32 -c 2 -a 0 -i 12 -k RTR
r -t 0.437831710 -s 21 -d -1 -p message -e 32 -c 2 -a 0 -i 12 -k RTR
r -t 0.437831748 -s 15 -d -1 -p message -e 32 -c 2 -a 0 -i 12 -k RTR
r -t 0.437831749 -s 2 -d -1 -p message -e 32 -c 2 -a 0 -i 12 -k RTR
r -t 0.437831770 -s 18 -d -1 -p message -e 32 -c 2 -a 0 -i 12 -k RTR
r -t 0.437831798 -s 3 -d -1 -p message -e 32 -c 2 -a 0 -i 12 -k RTR
r -t 0.437831818 -s 4 -d -1 -p message -e 32 -c 2 -a 0 -i 12 -k RTR
r -t 0.437831852 -s 11 -d -1 -p message -e 32 -c 2 -a 0 -i 12 -k RTR
r -t 0.437831881 -s 5 -d -1 -p message -e 32 -c 2 -a 0 -i 12 -k RTR
r -t 0.437831881 -s 14 -d -1 -p message -e 32 -c 2 -a 0 -i 12 -k RTR
r -t 0.437831895 -s 37 -d -1 -p message -e 32 -c 2 -a 0 -i 12 -k RTR
r -t 0.437831947 -s 0 -d -1 -p message -e 32 -c 2 -a 0 -i 12 -k RTR
r -t 0.437831973 -s 12 -d -1 -p message -e 32 -c 2 -a 0 -i 12 -k RTR
r -t 0.437831988 -s 28 -d -1 -p message -e 32 -c 2 -a 0 -i 12 -k RTR
r -t 0.437832036 -s 17 -d -1 -p message -e 32 -c 2 -a 0 -i 12 -k RTR
r -t 0.437832058 -s 23 -d -1 -p message -e 32 -c 2 -a 0 -i 12 -k RTR
r -t 0.437832064 -s 25 -d -1 -p message -e 32 -c 2 -a 0 -i 12 -k RTR
r -t 0.437832073 -s 26 -d -1 -p message -e 32 -c 2 -a 0 -i 12 -k RTR
r -t 0.437832135 -s 8 -d -1 -p message -e 32 -c 2 -a 0 -i 12 -k RTR
+ -t 0.473885630 -s 37 -d -1 -p message -e 32 -c 2 -a 0 -i 13 -k RTR 
- -t 0.473885630 -s 37 -d -1 -p message -e 32 -c 2 -a 0 -i 13 -k RTR
h -t 0.473885630 -s 37 -d -1 -p message -e 32 -c 2 -a 0 -i 13 -k RTR
r -t 0.477935746 -s 5 -d -1 -p message -e 32 -c 2 -a 0 -i 13 -k RTR
r -t 0.477935842 -s 2 -d -1 -p message -e 32 -c 2 -a 0 -i 13 -k RTR
r -t 0.477936073 -s 12 -d -1 -p message -e 32 -c 2 -a 0 -i 13 -k RTR
r -t 0.477936093 -s 8 -d -1 -p message -e 32 -c 2 -a 0 -i 13 -k RTR
r -t 0.477936095 -s 35 -d -1 -p message -e 32 -c 2 -a 0 -i 13 -k RTR
r -t 0.477936110 -s 19 -d -1 -p message -e 32 -c 2 -a 0 -i 13 -k RTR
r -t 0.477936110 -s 31 -d -1 -p message -e 32 -c 2 -a 0 -i 13 -k RTR
r -t 0.477936162 -s 21 -d -1 -p message -e 32 -c 2 -a 0 -i 13 -k RTR
r -t 0.477936185 -s 11 -d -1 -p message -e 32 -c 2 -a 0 -i 13 -k RTR
r -t 0.477936186 -s 27 -d -1 -p message -e 32 -c 2 -a 0 -i 13 -k RTR
r -t 0.477936209 -s 29 -d -1 -p message -e 32 -c 2 -a 0 -i 13 -k RTR
r -t 0.477936256 -s 20 -d -1 -p message -e 32 -c 2 -a 0 -i 13 -k RTR
r -t 0.477936284 -s 7 -d -1 -p message -e 32 -c 2 -a 0 -i 13 -k RTR
r -t 0.477936391 -s 13 -d -1 -p message -e 32 -c 2 -a 0 -i 13 -k RTR
r -t 0.477936421 -s 9 -d -1 -p message -e 32 -c 2 -a 0 -i 13 -k RTR
+ -t 0.610393676 -s 7 -d -1 -p message -e 32 -c 2 -a 0 -i 14 -k RTR 
- -t 0.610393676 -s 7 -d -1 -p message -e 32 -c 2 -a 0 -i 14 -k RTR
h -t 0.610393676 -s 7 -d -1 -p message -e 32 -c 2 -a 0 -i 14 -k RTR
r -t 0.613483844 -s 29 -d -1 -p message -e 32 -c 2 -a 0 -i 14 -k RTR
r -t 0.613483852 -s 9 -d -1 -p message -e 32 -c 2 -a 0 -i 14 -k RTR
r -t 0.613483860 -s 13 -d -1 -p message -e 32 -c 2 -a 0 -i 14 -k RTR
r -t 0.613483898 -s 8 -d -1 -p message -e 32 -c 2 -a 0 -i 14 -k RTR
r -t 0.613483918 -s 12 -d -1 -p message -e 32 -c 2 -a 0 -i 14 -k RTR
r -t 0.613483938 -s 1 -d -1 -p message -e 32 -c 2 -a 0 -i 14 -k RTR
r -t 0.613483953 -s 34 -d -1 -p message -e 32 -c 2 -a 0 -i 14 -k RTR
r -t 0.613483953 -s 35 -d -1 -p message -e 32 -c 2 -a 0 -i 14 -k RTR
r -t 0.613483964 -s 38 -d -1 -p message -e 32 -c 2 -a 0 -i 14 -k RTR
r -t 0.613484050 -s 39 -d -1 -p message -e 32 -c 2 -a 0 -i 14 -k RTR
r -t 0.613484058 -s 11 -d -1 -p message -e 32 -c 2 -a 0 -i 14 -k RTR
r -t 0.613484166 -s 33 -d -1 -p message -e 32 -c 2 -a 0 -i 14 -k RTR
r -t 0.613484227 -s 2 -d -1 -p message -e 32 -c 2 -a 0 -i 14 -k RTR
r -t 0.613484257 -s 16 -d -1 -p message -e 32 -c 2 -a 0 -i 14 -k RTR
r -t 0.613484330 -s 37 -d -1 -p message -e 32 -c 2 -a 0 -i 14 -k RTR
r -t 0.613484376 -s 30 -d -1 -p message -e 32 -c 2 -a 0 -i 14 -k RTR
r -t 0.613484443 -s 5 -d -1 -p message -e 32 -c 2 -a 0 -i 14 -k RTR
r -t 0.613484470 -s 17 -d -1 -p message -e 32 -c 2 -a 0 -i 14 -k RTR
r -t 0.613484470 -s 36 -d -1 -p message -e 32 -c 2 -a 0 -i 14 -k RTR
+ -t 0.644008788 -s 9 -d -1 -p message -e 32 -c 2 -a 0 -i 15 -k RTR 
- -t 0.644008788 -s 9 -d -1 -p message -e 32 -c 2 -a 0 -i 15 -k RTR
h -t 0.644008788 -s 9 -d -1 -p message -e 32 -c 2 -a 0 -i 15 -k RTR
r -t 0.647418842 -s 13 -d -1 -p message -e 32 -c 2 -a 0 -i 15 -k RTR
r -t 0.647418904 -s 34 -d -1 -p message -e 32 -c 2 -a 0 -i 15 -k RTR
r -t 0.647418964 -s 7 -d -1 -p message -e 32 -c 2 -a 0 -i 15 -k RTR
r -t 0.647418988 -s 38 -d -1 -p message -e 32 -c 2 -a 0 -i 15 -k RTR
r -t 0.647419076 -s 1 -d -1 -p message -e 32 -c 2 -a 0 -i 15 -k RTR
r -t 0.647419107 -s 39 -d -1 -p message -e 32 -c 2 -a 0 -i 15 -k RTR
r -t 0.647419130 -s 29 -d -1 -p message -e 32 -c 2 -a 0 -i 15 -k RTR
r -t 0.647419138 -s 12 -d -1 -p message -e 32 -c 2 -a 0 -i 15 -k RTR
r -t 0.647419160 -s 33 -d -1 -p message -e 32 -c 2 -a 0 -i 15 -k RTR
r -t 0.647419175 -s 11 -d -1 -p message -e 32 -c 2 -a 0 -i 15 -k RTR
r -t 0.647419181 -s 8 -d -1 -p message -e 32 -c 2 -a 0 -i 15 -k RTR
r -t 0.647419240 -s 35 -d -1 -p message -e 32 -c 2 -a 0 -i 15 -k RTR
r -t 0.647419259 -s 16 -d -1 -p message -e 32 -c 2 -a 0 -i 15 -k RTR
r -t 0.647419316 -s 30 -d -1 -p message -e 32 -c 2 -a 0 -i 15 -k RTR
r -t 0.647419411 -s 36 -d -1 -p message -e 32 -c 2 -a 0 -i 15 -k RTR
r -t 0.647419442 -s 2 -d -1 -p message -e 32 -c 2 -a 0 -i 15 -k RTR
r -t 0.647419474 -s 17 -d -1 -p message -e 32 -c 2 -a 0 -i 15 -k RTR
r -t 0.647419579 -s 37 -d -1 -p message -e 32 -c 2 -a 0 -i 15 -k RTR
+ -t 0.662977502 -s 24 -d -1 -p message -e 32 -c 2 -a 0 -i 16 -k RTR 
- -t 0.662977502 -s 24 -d -1 -p message -e 32 -c 2 -a 0 -i 16 -k RTR
h -t 0.662977502 -s 24 -d -1 -p message -e 32 -c 2 -a 0 -i 16 -k RTR
r -t 0.665747566 -s 15 -d -1 -p message -e 32 -c 2 -a 0 -i 16 -k RTR
r -t 0.665747628 -s 18 -d -1 -p message -e 32 -c 2 -a 0 -i 16 -k RTR
r -t 0.665747651 -s 4 -d -1 -p message -e 32 -c 2 -a 0 -i 16 -k RTR
r -t 0.665747812 -s 28 -d -1 -p message -e 32 -c 2 -a 0 -i 16 -k RTR
r -t 0.665747840 -s 20 -d -1 -p message -e 32 -c 2 -a 0 -i 16 -k RTR
r -t 0.665747855 -s 27 -d -1 -p message -e 32 -c 2 -a 0 -i 16 -k RTR
r -t 0.665747876 -s 25 -d -1 -p message -e 32 -c 2 -a 0 -i 16 -k RTR
r -t 0.665747957 -s 21 -d -1 -p message -e 32 -c 2 -a 0 -i 16 -k RTR
r -t 0.665747977 -s 14 -d -1 -p message -e 32 -c 2 -a 0 -i 16 -k RTR
r -t 0.665747996 -s 3 -d -1 -p message -e 32 -c 2 -a 0 -i 16 -k RTR
r -t 0.665748030 -s 23 -d -1 -p message -e 32 -c 2 -a 0 -i 16 -k RTR
r -t 0.665748098 -s 26 -d -1 -p message -e 32 -c 2 -a 0 -i 16 -k RTR
r -t 0.665748192 -s 0 -d -1 -p message -e 32 -c 2 -a 0 -i 16 -k RTR
r -t 0.665748237 -s 32 -d -1 -p message -e 32 -c 2 -a 0 -i 16 -k RTR
r -t 0.665748243 -s 6 -d -1 -p message -e 32 -c 2 -a 0 -i 16 -k RTR
r -t 0.665748258 -s 2 -d -1 -p message -e 32 -c 2 -a 0 -i 16 -k RTR
r -t 0.665748325 -s 5 -d -1 -p message -e 32 -c 2 -a 0 -i 16 -k RTR
+ -t 0.671512376 -s 2 -d -1 -p message -e 32 -c 2 -a 0 -i 17 -k RTR 
- -t 0.671512376 -s 2 -d -1 -p message -e 32 -c 2 -a 0 -i 17 -k RTR
h -t 0.671512376 -s 2 -d -1 -p message -e 32 -c 2 -a 0 -i 17 -k RTR
r -t 0.673962588 -s 37 -d -1 -p message -e 32 -c 2 -a 0 -i 17 -k RTR
r -t 0.673962658 -s 5 -d -1 -p message -e 32 -c 2 -a 0 -i 17 -k RTR
r -t 0.673962687 -s 12 -d -1 -p message -e 32 -c 2 -a 0 -i 17 -k RTR
r -t 0.673962733 -s 11 -d -1 -p message -e 32 -c 2 -a 0 -i 17 -k RTR
r -t 0.673962786 -s 27 -d -1 -p message -e 32 -c 2 -a 0 -i 17 -k RTR
r -t 0.673962793 -s 8 -d -1 -p message -e 32 -c 2 -a 0 -i 17 -k RTR
r -t 0.673962829 -s 35 -d -1 -p message -e 32 -c 2 -a 0 -i 17 -k RTR
r -t 0.673962906 -s 21 -d -1 -p message -e 32 -c 2 -a 0 -i 17 -k RTR
r -t 0.673962907 -s 29 -d -1 -p message -e 32 -c 2 -a 0 -i 17 -k RTR
r -t 0.673962926 -s 7 -d -1 -p message -e 32 -c 2 -a 0 -i 17 -k RTR
r -t 0.673962965 -s 20 -d -1 -p message -e 32 -c 2 -a 0 -i 17 -k RTR
r -t 0.673962990 -s 13 -d -1 -p message -e 32 -c 2 -a 0 -i 17 -k RTR
r -t 0.673963029 -s 9 -d -1 -p message -e 32 -c 2 -a 0 -i 17 -k RTR
r -t 0.673963062 -s 19 -d -1 -p message -e 32 -c 2 -a 0 -i 17 -k RTR
r -t 0.673963065 -s 31 -d -1 -p message -e 32 -c 2 -a 0 -i 17 -k RTR
r -t 0.673963132 -s 24 -d -1 -p message -e 32 -c 2 -a 0 -i 17 -k RTR
r -t 0.673963142 -s 3 -d -1 -p message -e 32 -c 2 -a 0 -i 17 -k RTR
r -t 0.673963145 -s 34 -d -1 -p message -e 32 -c 2 -a 0 -i 17 -k RTR
r -t 0.673963179 -s 1 -d -1 -p message -e 32 -c 2 -a 0 -i 17 -k RTR
r -t 0.673963181 -s 15 -d -1 -p message -e 32 -c 2 -a 0 -i 17 -k RTR
r -t 0.673963186 -s 18 -d -1 -p message -e 32 -c 2 -a 0 -i 17 -k RTR
r -t 0.673963189 -s 17 -d -1 -p message -e 32 -c 2 -a 0 -i 17 -k RTR
r -t 0.673963205 -s 38 -d -1 -p message -e 32 -c 2 -a 0 -i 17 -k RTR
+ -t 0.734422856 -s 6 -d -1 -p message -e 32 -c 2 -a 0 -i 18 -k RTR 
- -t 0.734422856 -s 6 -d -1 -p message -e 32 -c 2 -a 0 -i 18 -k RTR
h -t 0.734422856 -s 6 -d -1 -p message -e 32 -c 2 -a 0 -i 18 -k RTR
r -t 0.737192871 -s 32 -d -1 -p message -e 32 -c 2 -a 0 -i 18 -k RTR
r -t 0.737193002 -s 26 -d -1 -p message -e 32 -c 2 -a 0 -i 18 -k RTR
r -t 0.737193089 -s 23 -d -1 -p message -e 32 -c 2 -a 0 -i 18 -k RTR
r -t 0.737193186 -s 14 -d -1 -p message -e 32 -c 2 -a 0 -i 18 -k RTR
r -t 0.737193304 -s 3 -d -1 -p message -e 32 -c 2 -a 0 -i 18 -k RTR
r -t 0.737193317 -s 0 -d -1 -p message -e 32 -c 2 -a 0 -i 18 -k RTR
r -t 0.737193523 -s 17 -d -1 -p message -e 32 -c 2 -a 0 -i 18 -k RTR
r -t 0.737193561 -s 22 -d -1 -p message -e 32 -c 2 -a 0 -i 18 -k RTR
r -t 0.737193565 -s 25 -d -1 -p message -e 32 -c 2 -a 0 -i 18 -k RTR
r -t 0.737193598 -s 24 -d -1 -p message -e 32 -c 2 -a 0 -i 18 -k RTR
r -t 0.737193608 -s 10 -d -1 -p message -e 32 -c 2 -a 0 -i 18 -k RTR
r -t 0.737193625 -s 15 -d -1 -p message -e 32 -c 2 -a 0 -i 18 -k RTR
r -t 0.737193684 -s 4 -d -1 -p message -e 32 -c 2 -a 0 -i 18 -k RTR
+ -t 0.820760492 -s 30 -d -1 -p message -e 32 -c 2 -a 0 -i 19 -k RTR 
- -t 0.820760492 -s 30 -d -1 -p message -e 32 -c 2 -a 0 -i 19 -k RTR
h -t 0.820760492 -s 30 -d -1 -p message -e 32 -c 2 -a 0 -i 19 -k RTR
r -t 0.824810590 -s 36 -d -1 -p message -e 32 -c 2 -a 0 -i 19 -k RTR
r -t 0.824810957 -s 34 -d -1 -p message -e 32 -c 2 -a 0 -i 19 -k RTR
r -t 0.824810975 -s 17 -d -1 -p message -e 32 -c 2 -a 0 -i 19 -k RTR
r -t 0.824811010 -s 13 -d -1 -p message -e 32 -c 2 -a 0 -i 19 -k RTR
r -t 0.824811020 -s 9 -d -1 -p message -e 32 -c 2 -a 0 -i 19 -k RTR
r -t 0.824811025 -s 33 -d -1 -p message -e 32 -c 2 -a 0 -i 19 -k RTR
r -t 0.824811067 -s 38 -d -1 -p message -e 32 -c 2 -a 0 -i 19 -k RTR
r -t 0.824811084 -s 16 -d -1 -p message -e 32 -c 2 -a 0 -i 19 -k RTR
r -t 0.824811151 -s 39 -d -1 -p message -e 32 -c 2 -a 0 -i 19 -k RTR
r -t 0.824811157 -s 11 -d -1 -p message -e 32 -c 2 -a 0 -i 19 -k RTR
r -t 0.824811168 -s 22 -d -1 -p message -e 32 -c 2 -a 0 -i 19 -k RTR
r -t 0.824811192 -s 7 -d -1 -p message -e 32 -c 2 -a 0 -i 19 -k RTR
r -t 0.824811202 -s 0 -d -1 -p message -e 32 -c 2 -a 0 -i 19 -k RTR
r -t 0.824811238 -s 1 -d -1 -p message -e 32 -c 2 -a 0 -i 19 -k RTR
r -t 0.824811248 -s 10 -d -1 -p message -e 32 -c 2 -a 0 -i 19 -k RTR
r -t 0.824811283 -s 12 -d -1 -p message -e 32 -c 2 -a 0 -i 19 -k RTR
+ -t 0.853923710 -s 29 -d -1 -p message -e 32 -c 2 -a 0 -i 20 -k RTR 
- -t 0.853923710 -s 29 -d -1 -p message -e 32 -c 2 -a 0 -i 20 -k RTR
h -t 0.853923710 -s 29 -d -1 -p message -e 32 -c 2 -a 0 -i 20 -k RTR
r -t 0.856693828 -s 8 -d -1 -p message -e 32 -c 2 -a 0 -i 20 -k RTR
r -t 0.856693840 -s 35 -d -1 -p message -e 32 -c 2 -a 0 -i 20 -k RTR
r -t 0.856693878 -s 7 -d -1 -p message -e 32 -c 2 -a 0 -i 20 -k RTR
r -t 0.856693980 -s 12 -d -1 -p message -e 32 -c 2 -a 0 -i 20 -k RTR
r -t 0.856694013 -s 1 -d -1 -p message -e 32 -c 2 -a 0 -i 20 -k RTR
r -t 0.856694052 -s 9 -d -1 -p message -e 32 -c 2 -a 0 -i 20 -k RTR
r -t 0.856694062 -s 13 -d -1 -p message -e 32 -c 2 -a 0 -i 20 -k RTR
r -t 0.856694116 -s 38 -d -1 -p message -e 32 -c 2 -a 0 -i 20 -k RTR
r -t 0.856694142 -s 34 -d -1 -p message -e 32 -c 2 -a 0 -i 20 -k RTR
r -t 0.856694166 -s 39 -d -1 -p message -e 32 -c 2 -a 0 -i 20 -k RTR