n -t * -s 0  -x 216 -y 453 -Z 0 -z 20  -v circle -c black
n -t * -s 1  -x 723 -y 577 -Z 0 -z 20  -v circle -c black
n -t * -s 2  -x 543 -y 264 -Z 0 -z 20  -v circle -c black
n -t * -s 3  -x 212 -y 364 -Z 0 -z 20  -v circle -c black
n -t * -s 4  -x 201 -y 80 -Z 0 -z 20  -v circle -c black
n -t * -s 5  -x 596 -y 148 -Z 0 -z 20  -v circle -c black
n -t * -s 6  -x 14 -y 401 -Z 0 -z 20  -v circle -c black
n -t * -s 7  -x 643 -y 491 -Z 0 -z 20  -v circle -c black
n -t * -s 8  -x 676 -y 396 -Z 0 -z 20  -v circle -c black
n -t * -s 9  -x 595 -y 553 -Z 0 -z 20  -v circle -c black
n -t * -s 10  -x 73 -y 735 -Z 0 -z 20  -v circle -c black
n -t * -s 11  -x 488 -y 415 -Z 0 -z 20  -v circle -c black
n -t * -s 12  -x 589 -y 395 -Z 0 -z 20  -v circle -c black
n -t * -s 13  -x 576 -y 538 -Z 0 -z 20  -v circle -c black
n -t * -s 14  -x 151 -y 343 -Z 0 -z 20  -v circle -c black
n -t * -s 15  -x 212 -y 117 -Z 0 -z 20  -v circle -c black
n -t * -s 16  -x 674 -y 750 -Z 0 -z 20  -v circle -c black
n -t * -s 17  -x 287 -y 526 -Z 0 -z 20  -v circle -c black
n -t * -s 18  -x 224 -y 86 -Z 0 -z 20  -v circle -c black
n -t * -s 19  -x 721 -y 12 -Z 0 -z 20  -v circle -c black
n -t * -s 20  -x 360 -y 71 -Z 0 -z 20  -v circle -c black
n -t * -s 21  -x 414 -y 62 -Z 0 -z 20  -v circle -c black
n -t * -s 22  -x 107 -y 705 -Z 0 -z 20  -v circle -c black
n -t * -s 23  -x 50 -y 303 -Z 0 -z 20  -v circle -c black
n -t * -s 24  -x 225 -y 142 -Z 0 -z 20  -v circle -c black
n -t * -s 25  -x 66 -y 86 -Z 0 -z 20  -v circle -c black
n -t * -s 26  -x 60 -y 354 -Z 0 -z 20  -v circle -c black
n -t * -s 27  -x 363 -y 221 -Z 0 -z 20  -v circle -c black
n -t * -s 28  -x 144 -y 28 -Z 0 -z 20  -v circle -c black
n -t * -s 29  -x 701 -y 442 -Z 0 -z 20  -v circle -c black
n -t * -s 30  -x 412 -y 705 -Z 0 -z 20  -v circle -c black
n -t * -s 31  -x 738 -y 22 -Z 0 -z 20  -v circle -c black
n -t * -s 32  -x 12 -y 396 -Z 0 -z 20  -v circle -c black
n -t * -s 33  -x 653 -y 711 -Z 0 -z 20  -v circle -c black
n -t * -s 34  -x 597 -y 606 -Z 0 -z 20  -v circle -c black
n -t * -s 35  -x 707 -y 384 -Z 0 -z 20  -v circle -c black
n -t * -s 36  -x 372 -y 723 -Z 0 -z 20  -v circle -c black
n -t * -s 37  -x 611 -y 197 -Z 0 -z 20  -v circle -c black
n -t * -s 38  -x 657 -y 619 -Z 0 -z 20  -v circle -c black
n -t * -s 39  -x 703 -y 647 -Z 0 -z 20  -v circle -c black
V -t * -v 1.0a5 -a 0
W -t * -x 750 -y 750
A -t * -n 1 -p 0 -o 0x7fffffff -c 30 -a 1
A -t * -h 1 -m 1073741823 -s 0
+ -t 0.036328457 -s 11 -d -1 -p message -e 32 -c 2 -a 0 -i 0 -k RTR 
- -t 0.036328457 -s 11 -d -1 -p message -e 32 -c 2 -a 0 -i 0 -k RTR
h -t 0.036328457 -s 11 -d -1 -p message -e 32 -c 2 -a 0 -i 0 -k RTR
r -t 0.038778800 -s 12 -d -1 -p message -e 32 -c 2 -a 0 -i 0 -k RTR
r -t 0.038778961 -s 13 -d -1 -p message -e 32 -c 2 -a 0 -i 0 -k RTR
r -t 0.038778993 -s 2 -d -1 -p message -e 32 -c 2 -a 0 -i 0 -k RTR
r -t 0.038779033 -s 7 -d -1 -p message -e 32 -c 2 -a 0 -i 0 -k RTR
r -t 0.038779039 -s 9 -d -1 -p message -e 32 -c 2 -a 0 -i 0 -k RTR
r -t 0.038779087 -s 8 -d -1 -p message -e 32 -c 2 -a 0 -i 0 -k RTR
r -t 0.038779173 -s 29 -d -1 -p message -e 32 -c 2 -a 0 -i 0 -k RTR
r -t 0.038779190 -s 34 -d -1 -p message -e 32 -c 2 -a 0 -i 0 -k RTR
r -t 0.038779194 -s 35 -d -1 -p message -e 32 -c 2 -a 0 -i 0 -k RTR
r -t 0.038779222 -s 17 -d -1 -p message -e 32 -c 2 -a 0 -i 0 -k RTR
r -t 0.038779226 -s 27 -d -1 -p message -e 32 -c 2 -a 0 -i 0 -k RTR
+ -t 0.073282045 -s 4 -d -1 -p message -e 32 -c 2 -a 0 -i 1 -k RTR 
- -t 0.073282045 -s 4 -d -1 -p message -e 32 -c 2 -a 0 -i 1 -k RTR
h -t 0.073282045 -s 4 -d -1 -p message -e 32 -c 2 -a 0 -i 1 -k RTR
r -t 0.076692124 -s 18 -d -1 -p message -e 32 -c 2 -a 0 -i 1 -k RTR
r -t 0.076692174 -s 15 -d -1 -p message -e 32 -c 2 -a 0 -i 1 -k RTR
r -t 0.076692267 -s 24 -d -1 -p message -e 32 -c 2 -a 0 -i 1 -k RTR
r -t 0.076692302 -s 28 -d -1 -p message -e 32 -c 2 -a 0 -i 1 -k RTR
r -t 0.076692496 -s 25 -d -1 -p message -e 32 -c 2 -a 0 -i 1 -k RTR
r -t 0.076692576 -s 20 -d -1 -p message -e 32 -c 2 -a 0 -i 1 -k RTR
r -t 0.076692758 -s 21 -d -1 -p message -e 32 -c 2 -a 0 -i 1 -k RTR
r -t 0.076692761 -s 27 -d -1 -p message -e 32 -c 2 -a 0 -i 1 -k RTR
+ -t 0.088584275 -s 31 -d -1 -p message -e 32 -c 2 -a 0 -i 2 -k RTR 
- -t 0.088584275 -s 31 -d -1 -p message -e 32 -c 2 -a 0 -i 2 -k RTR
h -t 0.088584275 -s 31 -d -1 -p message -e 32 -c 2 -a 0 -i 2 -k RTR
r -t 0.092634340 -s 19 -d -1 -p message -e 32 -c 2 -a 0 -i 2 -k RTR
r -t 0.092634908 -s 5 -d -1 -p message -e 32 -c 2 -a 0 -i 2 -k RTR
r -t 0.092634995 -s 37 -d -1 -p message -e 32 -c 2 -a 0 -i 2 -k RTR
+ -t 0.126846076 -s 36 -d -1 -p message -e 32 -c 2 -a 0 -i 3 -k RTR 
- -t 0.126846076 -s 36 -d -1 -p message -e 32 -c 2 -a 0 -i 3 -k RTR
h -t 0.126846076 -s 36 -d -1 -p message -e 32 -c 2 -a 0 -i 3 -k RTR
+ -t 0.129642904 -s 28 -d -1 -p message -e 32 -c 2 -a 0 -i 4 -k RTR 
- -t 0.129642904 -s 28 -d -1 -p message -e 32 -c 2 -a 0 -i 4 -k RTR
h -t 0.129642904 -s 28 -d -1 -p message -e 32 -c 2 -a 0 -i 4 -k RTR
r -t 0.130896222 -s 30 -d -1 -p message -e 32 -c 2 -a 0 -i 3 -k RTR
r -t 0.130896791 -s 17 -d -1 -p message -e 32 -c 2 -a 0 -i 3 -k RTR
r -t 0.133373161 -s 4 -d -1 -p message -e 32 -c 2 -a 0 -i 4 -k RTR
r -t 0.133373228 -s 25 -d -1 -p message -e 32 -c 2 -a 0 -i 4 -k RTR
r -t 0.133373234 -s 18 -d -1 -p message -e 32 -c 2 -a 0 -i 4 -k RTR
r -t 0.133373278 -s 15 -d -1 -p message -e 32 -c 2 -a 0 -i 4 -k RTR
r -t 0.133373370 -s 24 -d -1 -p message -e 32 -c 2 -a 0 -i 4 -k RTR
r -t 0.133373638 -s 20 -d -1 -p message -e 32 -c 2 -a 0 -i 4 -k RTR
+ -t 0.247164037 -s 15 -d -1 -p message -e 32 -c 2 -a 0 -i 5 -k RTR 
- -t 0.247164037 -s 15 -d -1 -p message -e 32 -c 2 -a 0 -i 5 -k RTR
h -t 0.247164037 -s 15 -d -1 -p message -e 32 -c 2 -a 0 -i 5 -k RTR
r -t 0.250574131 -s 24 -d -1 -p message -e 32 -c 2 -a 0 -i 5 -k RTR
r -t 0.250574148 -s 18 -d -1 -p message -e 32 -c 2 -a 0 -i 5 -k RTR
r -t 0.250574165 -s 4 -d -1 -p message -e 32 -c 2 -a 0 -i 5 -k RTR
r -t 0.250574410 -s 28 -d -1 -p message -e 32 -c 2 -a 0 -i 5 -k RTR
r -t 0.250574534 -s 25 -d -1 -p message -e 32 -c 2 -a 0 -i 5 -k RTR
r -t 0.250574553 -s 20 -d -1 -p message -e 32 -c 2 -a 0 -i 5 -k RTR
r -t 0.250574648 -s 27 -d -1 -p message -e 32 -c 2 -a 0 -i 5 -k RTR
r -t 0.250574735 -s 21 -d -1 -p message -e 32 -c 2 -a 0 -i 5 -k RTR
r -t 0.250574817 -s 14 -d -1 -p message -e 32 -c 2 -a 0 -i 5 -k RTR
r -t 0.250574859 -s 23 -d -1 -p message -e 32 -c 2 -a 0 -i 5 -k RTR
r -t 0.250574860 -s 3 -d -1 -p message -e 32 -c 2 -a 0 -i 5 -k RTR
+ -t 0.321822596 -s 26 -d -1 -p message -e 32 -c 2 -a 0 -i 6 -k RTR 
- -t 0.321822596 -s 26 -d -1 -p message -e 32 -c 2 -a 0 -i 6 -k RTR
h -t 0.321822596 -s 26 -d -1 -p message -e 32 -c 2 -a 0 -i 6 -k RTR
r -t 0.324272770 -s 23 -d -1 -p message -e 32 -c 2 -a 0 -i 6 -k RTR
r -t 0.324272809 -s 32 -d -1 -p message -e 32 -c 2 -a 0 -i 6 -k RTR
r -t 0.324272816 -s 6 -d -1 -p message -e 32 -c 2 -a 0 -i 6 -k RTR
r -t 0.324272902 -s 14 -d -1 -p message -e 32 -c 2 -a 0 -i 6 -k RTR
r -t 0.324273104 -s 3 -d -1 -p message -e 32 -c 2 -a 0 -i 6 -k RTR
r -t 0.324273212 -s 0 -d -1 -p message -e 32 -c 2 -a 0 -i 6 -k RTR
+ -t 0.349191800 -s 3 -d -1 -p message -e 32 -c 2 -a 0 -i 7 -k RTR 
- -t 0.349191800 -s 3 -d -1 -p message -e 32 -c 2 -a 0 -i 7 -k RTR
h -t 0.349191800 -s 3 -d -1 -p message -e 32 -c 2 -a 0 -i 7 -k RTR
r -t 0.352922015 -s 14 -d -1 -p message -e 32 -c 2 -a 0 -i 7 -k RTR
r -t 0.352922097 -s 0 -d -1 -p message -e 32 -c 2 -a 0 -i 7 -k RTR
r -t 0.352922308 -s 26 -d -1 -p message -e 32 -c 2 -a 0 -i 7 -k RTR
r -t 0.352922377 -s 23 -d -1 -p message -e 32 -c 2 -a 0 -i 7 -k RTR
r -t 0.352922395 -s 17 -d -1 -p message -e 32 -c 2 -a 0 -i 7 -k RTR
r -t 0.352922472 -s 6 -d -1 -p message -e 32 -c 2 -a 0 -i 7 -k RTR
r -t 0.352922475 -s 32 -d -1 -p message -e 32 -c 2 -a 0 -i 7 -k RTR
r -t 0.352922493 -s 27 -d -1 -p message -e 32 -c 2 -a 0 -i 7 -k RTR
r -t 0.352922542 -s 24 -d -1 -p message -e 32 -c 2 -a 0 -i 7 -k RTR
r -t 0.352922624 -s 15 -d -1 -p message -e 32 -c 2 -a 0 -i 7 -k RTR
+ -t 0.356017125 -s 29 -d -1 -p message -e 32 -c 2 -a 0 -i 8 -k RTR 
- -t 0.356017125 -s 29 -d -1 -p message -e 32 -c 2 -a 0 -i 8 -k RTR
h -t 0.356017125 -s 29 -d -1 -p message -e 32 -c 2 -a 0 -i 8 -k RTR
r -t 0.359427299 -s 8 -d -1 -p message -e 32 -c 2 -a 0 -i 8 -k RTR
r -t 0.359427319 -s 35 -d -1 -p message -e 32 -c 2 -a 0 -i 8 -k RTR
r -t 0.359427378 -s 7 -d -1 -p message -e 32 -c 2 -a 0 -i 8 -k RTR
r -t 0.359427530 -s 12 -d -1 -p message -e 32 -c 2 -a 0 -i 8 -k RTR
r -t 0.359427581 -s 1 -d -1 -p message -e 32 -c 2 -a 0 -i 8 -k RTR
r -t 0.359427637 -s 9 -d -1 -p message -e 32 -c 2 -a 0 -i 8 -k RTR
r -t 0.359427650 -s 13 -d -1 -p message -e 32 -c 2 -a 0 -i 8 -k RTR
r -t 0.359427733 -s 38 -d -1 -p message -e 32 -c 2 -a 0 -i 8 -k RTR
r -t 0.359427772 -s 34 -d -1 -p message -e 32 -c 2 -a 0 -i 8 -k RTR
r -t 0.359427808 -s 39 -d -1 -p message -e 32 -c 2 -a 0 -i 8 -k RTR
r -t 0.359427841 -s 11 -d -1 -p message -e 32 -c 2 -a 0 -i 8 -k RTR
r -t 0.359427918 -s 2 -d -1 -p message -e 32 -c 2 -a 0 -i 8 -k RTR
+ -t 0.421784672 -s 10 -d -1 -p message -e 32 -c 2 -a 0 -i 9 -k RTR 
- -t 0.421784672 -s 10 -d -1 -p message -e 32 -c 2 -a 0 -i 9 -k RTR
h -t 0.421784672 -s 10 -d -1 -p message -e 32 -c 2 -a 0 -i 9 -k RTR
r -t 0.425514823 -s 22 -d -1 -p message -e 32 -c 2 -a 0 -i 9 -k RTR
+ -t 0.429968552 -s 17 -d -1 -p message -e 32 -c 2 -a 0 -i 10 -k RTR 
- -t 0.429968552 -s 17 -d -1 -p message -e 32 -c 2 -a 0 -i 10 -k RTR
h -t 0.429968552 -s 17 -d -1 -p message -e 32 -c 2 -a 0 -i 10 -k RTR
r -t 0.434018891 -s 0 -d -1 -p message -e 32 -c 2 -a 0 -i 10 -k RTR
r -t 0.434019147 -s 3 -d -1 -p message -e 32 -c 2 -a 0 -i 10 -k RTR
r -t 0.434019267 -s 36 -d -1 -p message -e 32 -c 2 -a 0 -i 10 -k RTR
r -t 0.434019279 -s 30 -d -1 -p message -e 32 -c 2 -a 0 -i 10 -k RTR
r -t 0.434019312 -s 14 -d -1 -p message -e 32 -c 2 -a 0 -i 10 -k RTR
r -t 0.434019317 -s 11 -d -1 -p message -e 32 -c 2 -a 0 -i 10 -k RTR
+ -t 0.454435365 -s 34 -d -1 -p message -e 32 -c 2 -a 0 -i 11 -k RTR 
- -t 0.454435365 -s 34 -d -1 -p message -e 32 -c 2 -a 0 -i 11 -k RTR
h -t 0.454435365 -s 34 -d -1 -p message -e 32 -c 2 -a 0 -i 11 -k RTR
r -t 0.458165542 -s 9 -d -1 -p message -e 32 -c 2 -a 0 -i 11 -k RTR
r -t 0.458165570 -s 38 -d -1 -p message -e 32 -c 2 -a 0 -i 11 -k RTR
r -t 0.458165602 -s 13 -d -1 -p message -e 32 -c 2 -a 0 -i 11 -k RTR
r -t 0.458165744 -s 39 -d -1 -p message -e 32 -c 2 -a 0 -i 11 -k RTR
r -t 0.458165762 -s 33 -d -1 -p message -e 32 -c 2 -a 0 -i 11 -k RTR
r -t 0.458165778 -s 7 -d -1 -p message -e 32 -c 2 -a 0 -i 11 -k RTR
r -t 0.458165796 -s 1 -d -1 -p message -e 32 -c 2 -a 0 -i 11 -k RTR
r -t 0.458165910 -s 16 -d -1 -p message -e 32 -c 2 -a 0 -i 11 -k RTR
r -t 0.458166013 -s 29 -d -1 -p message -e 32 -c 2 -a 0 -i 11 -k RTR
r -t 0.458166065 -s 30 -d -1 -p message -e 32 -c 2 -a 0 -i 11 -k RTR
r -t 0.458166069 -s 12 -d -1 -p message -e 32 -c 2 -a 0 -i 11 -k RTR
r -t 0.458166098 -s 11 -d -1 -p message -e 32 -c 2 -a 0 -i 11 -k RTR
r -t 0.458166113 -s 8 -d -1 -p message -e 32 -c 2 -a 0 -i 11 -k RTR
r -t 0.458166191 -s 35 -d -1 -p message -e 32 -c 2 -a 0 -i 11 -k RTR
+ -t 0.474672686 -s 27 -d -1 -p message -e 32 -c 2 -a 0 -i 12 -k RTR 
- -t 0.474672686 -s 27 -d -1 -p message -e 32 -c 2 -a 0 -i 12 -k RTR
h -t 0.474672686 -s 27 -d -1 -p message -e 32 -c 2 -a 0 -i 12 -k RTR
r -t 0.477123186 -s 20 -d -1 -p message -e 32 -c 2 -a 0 -i 12 -k RTR
r -t 0.477123216 -s 24 -d -1 -p message -e 32 -c 2 -a 0 -i 12 -k RTR
r -t 0.477123243 -s 21 -d -1 -p message -e 32 -c 2 -a 0 -i 12 -k RTR
r -t 0.477123297 -s 15 -d -1 -p message -e 32 -c 2 -a 0 -i 12 -k RTR
r -t 0.477123303 -s 2 -d -1 -p message -e 32 -c 2 -a 0 -i 12 -k RTR
r -t 0.477123332 -s 18 -d -1 -p message -e 32 -c 2 -a 0 -i 12 -k RTR
r -t 0.477123380 -s 3 -d -1 -p message -e 32 -c 2 -a 0 -i 12 -k RTR
r -t 0.477123402 -s 4 -d -1 -p message -e 32 -c 2 -a 0 -i 12 -k RTR
r -t 0.477123456 -s 11 -d -1 -p message -e 32 -c 2 -a 0 -i 12 -k RTR
r -t 0.477123500 -s 5 -d -1 -p message -e 32 -c 2 -a 0 -i 12 -k RTR
r -t 0.477123502 -s 14 -d -1 -p message -e 32 -c 2 -a 0 -i 12 -k RTR
r -t 0.477123517 -s 37 -d -1 -p message -e 32 -c 2 -a 0 -i 12 -k RTR
+ -t 0.671962519 -s 14 -d -1 -p message -e 32 -c 2 -a 0 -i 13 -k RTR 
- -t 0.671962519 -s 14 -d -1 -p message -e 32 -c 2 -a 0 -i 13 -k RTR
h -t 0.671962519 -s 14 -d -1 -p message -e 32 -c 2 -a 0 -i 13 -k RTR
r -t 0.676652734 -s 3 -d -1 -p message -e 32 -c 2 -a 0 -i 13 -k RTR
r -t 0.676652825 -s 26 -d -1 -p message -e 32 -c 2 -a 0 -i 13 -k RTR
r -t 0.676652881 -s 23 -d -1 -p message -e 32 -c 2 -a 0 -i 13 -k RTR
r -t 0.676652945 -s 0 -d -1 -p message -e 32 -c 2 -a 0 -i 13 -k RTR
r -t 0.676653015 -s 32 -d -1 -p message -e 32 -c 2 -a 0 -i 13 -k RTR
r -t 0.676653015 -s 6 -d -1 -p message -e 32 -c 2 -a 0 -i 13 -k RTR
r -t 0.676653233 -s 24 -d -1 -p message -e 32 -c 2 -a 0 -i 13 -k RTR
r -t 0.676653279 -s 17 -d -1 -p message -e 32 -c 2 -a 0 -i 13 -k RTR
r -t 0.676653300 -s 15 -d -1 -p message -e 32 -c 2 -a 0 -i 13 -k RTR
r -t 0.676653335 -s 27 -d -1 -p message -e 32 -c 2 -a 0 -i 13 -k RTR
+ -t 0.684226311 -s 37 -d -1 -p message -e 32 -c 2 -a 0 -i 14 -k RTR 
- -t 0.684226311 -s 37 -d -1 -p message -e 32 -c 2 -a 0 -i 14 -k RTR
h -t 0.684226311 -s 37 -d -1 -p message -e 32 -c 2 -a 0 -i 14 -k RTR
r -t 0.688276481 -s 5 -d -1 -p message -e 32 -c 2 -a 0 -i 14 -k RTR
r -t 0.688276629 -s 2 -d -1 -p message -e 32 -c 2 -a 0 -i 14 -k RTR
r -t 0.688276975 -s 12 -d -1 -p message -e 32 -c 2 -a 0 -i 14 -k RTR
r -t 0.688277008 -s 8 -d -1 -p message -e 32 -c 2 -a 0 -i 14 -k RTR
r -t 0.688277011 -s 35 -d -1 -p message -e 32 -c 2 -a 0 -i 14 -k RTR
r -t 0.688277028 -s 19 -d -1 -p message -e 32 -c 2 -a 0 -i 14 -k RTR
r -t 0.688277031 -s 31 -d -1 -p message -e 32 -c 2 -a 0 -i 14 -k RTR
r -t 0.688277107 -s 21 -d -1 -p message -e 32 -c 2 -a 0 -i 14 -k RTR
r -t 0.688277141 -s 27 -d -1 -p message -e 32 -c 2 -a 0 -i 14 -k RTR
+ -t 0.820392893 -s 20 -d -1 -p message -e 32 -c 2 -a 0 -i 15 -k RTR 
- -t 0.820392893 -s 20 -d -1 -p message -e 32 -c 2 -a 0 -i 15 -k RTR
h -t 0.820392893 -s 20 -d -1 -p message -e 32 -c 2 -a 0 -i 15 -k RTR
r -t 0.824123075 -s 21 -d -1 -p message -e 32 -c 2 -a 0 -i 15 -k RTR
r -t 0.824123349 -s 18 -d -1 -p message -e 32 -c 2 -a 0 -i 15 -k RTR
r -t 0.824123393 -s 27 -d -1 -p message -e 32 -c 2 -a 0 -i 15 -k RTR
r -t 0.824123401 -s 24 -d -1 -p message -e 32 -c 2 -a 0 -i 15 -k RTR
r -t 0.824123409 -s 15 -d -1 -p message -e 32 -c 2 -a 0 -i 15 -k RTR
r -t 0.824123424 -s 4 -d -1 -p message -e 32 -c 2 -a 0 -i 15 -k RTR
r -t 0.824123627 -s 28 -d -1 -p message -e 32 -c 2 -a 0 -i 15 -k RTR
r -t 0.824123720 -s 5 -d -1 -p message -e 32 -c 2 -a 0 -i 15 -k RTR
+ -t 0.850035071 -s 19 -d -1 -p message -e 32 -c 2 -a 0 -i 16 -k RTR 
- -t 0.850035071 -s 19 -d -1 -p message -e 32 -c 2 -a 0 -i 16 -k RTR
h -t 0.850035071 -s 19 -d -1 -p message -e 32 -c 2 -a 0 -i 16 -k RTR
r -t 0.854725137 -s 31 -d -1 -p message -e 32 -c 2 -a 0 -i 16 -k RTR
r -t 0.854725687 -s 5 -d -1 -p message -e 32 -c 2 -a 0 -i 16 -k RTR
r -t 0.854725788 -s 37 -d -1 -p message -e 32 -c 2 -a 0 -i 16 -k RTR
+ -t 0.869383415 -s 18 -d -1 -p message -e 32 -c 2 -a 0 -i 17 -k RTR 
- -t 0.869383415 -s 18 -d -1 -p message -e 32 -c 2 -a 0 -i 17 -k RTR
h -t 0.869383415 -s 18 -d -1 -p message -e 32 -c 2 -a 0 -i 17 -k RTR
r -t 0.872793495 -s 4 -d -1 -p message -e 32 -c 2 -a 0 -i 17 -k RTR
r -t 0.872793526 -s 15 -d -1 -p message -e 32 -c 2 -a 0 -i 17 -k RTR
r -t 0.872793602 -s 24 -d -1 -p message -e 32 -c 2 -a 0 -i 17 -k RTR
r -t 0.872793745 -s 28 -d -1 -p message -e 32 -c 2 -a 0 -i 17 -k RTR
r -t 0.872793871 -s 20 -d -1 -p message -e 32 -c 2 -a 0 -i 17 -k RTR
r -t 0.872793942 -s 25 -d -1 -p message -e 32 -c 2 -a 0 -i 17 -k RTR
r -t 0.872794054 -s 21 -d -1 -p message -e 32 -c 2 -a 0 -i 17 -k RTR
r -t 0.872794061 -s 27 -d -1 -p message -e 32 -c 2 -a 0 -i 17 -k RTR
+ -t 0.875205073 -s 13 -d -1 -p message -e 32 -c 2 -a 0 -i 18 -k RTR 
- -t 0.875205073 -s 13 -d -1 -p message -e 32 -c 2 -a 0 -i 18 -k RTR
h -t 0.875205073 -s 13 -d -1 -p message -e 32 -c 2 -a 0 -i 18 -k RTR
r -t 0.877975153 -s 9 -d -1 -p message -e 32 -c 2 -a 0 -i 18 -k RTR
r -t 0.877975310 -s 34 -d -1 -p message -e 32 -c 2 -a 0 -i 18 -k RTR
r -t 0.877975346 -s 7 -d -1 -p message -e 32 -c 2 -a 0 -i 18 -k RTR
r -t 0.877975455 -s 38 -d -1 -p message -e 32 -c 2 -a 0 -i 18 -k RTR
r -t 0.877975551 -s 12 -d -1 -p message -e 32 -c 2 -a 0 -i 18 -k RTR
r -t 0.877975577 -s 11 -d -1 -p message -e 32 -c 2 -a 0 -i 18 -k RTR
r -t 0.877975580 -s 1 -d -1 -p message -e 32 -c 2 -a 0 -i 18 -k RTR
r -t 0.877975598 -s 29 -d -1 -p message -e 32 -c 2 -a 0 -i 18 -k RTR
r -t 0.877975631 -s 39 -d -1 -p message -e 32 -c 2 -a 0 -i 18 -k RTR
r -t 0.877975652 -s 8 -d -1 -p message -e 32 -c 2 -a 0 -i 18 -k RTR
r -t 0.877975704 -s 33 -d -1 -p message -e 32 -c 2 -a 0 -i 18 -k RTR
r -t 0.877975747 -s 35 -d -1 -p message -e 32 -c 2 -a 0 -i 18 -k RTR
r -t 0.877975851 -s 16 -d -1 -p message -e 32 -c 2 -a 0 -i 18 -k RTR
r -t 0.877975853 -s 30 -d -1 -p message -e 32 -c 2 -a 0 -i 18 -k RTR
+ -t 0.884601285 -s 12 -d -1 -p message -e 32 -c 2 -a 0 -i 19 -k RTR 
- -t 0.884601285 -s 12 -d -1 -p message -e 32 -c 2 -a 0 -i 19 -k RTR
h -t 0.884601285 -s 12 -d -1 -p message -e 32 -c 2 -a 0 -i 19 -k RTR
r -t 0.888971575 -s 8 -d -1 -p message -e 32 -c 2 -a 0 -i 19 -k RTR
r -t 0.888971628 -s 11 -d -1 -p message -e 32 -c 2 -a 0 -i 19 -k RTR
r -t 0.888971652 -s 7 -d -1 -p message -e 32 -c 2 -a 0 -i 19 -k RTR
r -t 0.888971680 -s 35 -d -1 -p message -e 32 -c 2 -a 0 -i 19 -k RTR
r -t 0.888971690 -s 29 -d -1 -p message -e 32 -c 2 -a 0 -i 19 -k RTR
r -t 0.888971748 -s 2 -d -1 -p message -e 32 -c 2 -a 0 -i 19 -k RTR
r -t 0.888971763 -s 13 -d -1 -p message -e 32 -c 2 -a 0 -i 19 -k RTR
r -t 0.888971812 -s 9 -d -1 -p message -e 32 -c 2 -a 0 -i 19 -k RTR
r -t 0.888971949 -s 37 -d -1 -p message -e 32 -c 2 -a 0 -i 19 -k RTR
r -t 0.888971989 -s 34 -d -1 -p message -e 32 -c 2 -a 0 -i 19 -k RTR
r -t 0.888972038 -s 1 -d -1 -p message -e 32 -c 2 -a 0 -i 19 -k RTR
r -t 0.888972065 -s 38 -d -1 -p message -e 32 -c 2 -a 0 -i 19 -k RTR
r -t 0.888972108 -s 5 -d -1 -p message -e 32 -c 2 -a 0 -i 19 -k RTR
+ -t 0.902722248 -s 9 -d -1 -p message -e 32 -c 2 -a 0 -i 20 -k RTR 
- -t 0.902722248 -s 9 -d -1 -p message -e 32 -c 2 -a 0 -i 20 -k RTR
h -t 0.902722248 -s 9 -d -1 -p message -e 32 -c 2 -a 0 -i 20 -k RTR
r -t 0.906452329 -s 13 -d -1 -p message -e 32 -c 2 -a 0 -i 20 -k RTR
r -t 0.906452425 -s 34 -d -1 -p message -e 32 -c 2 -a 0 -i 20 -k RTR
r -t 0.906452510 -s 7 -d -1 -p message -e 32 -c 2 -a 0 -i 20 -k RTR
r -t 0.906452550 -s 38 -d -1 -p message -e 32 -c 2 -a 0 -i 20 -k RTR
r -t 0.906452682 -s 1 -d -1 -p message -e 32 -c 2 -a 0 -i 20 -k RTR
r -t 0.906452726 -s 39 -d -1 -p message -e 32 -c 2 -a 0 -i 20 -k RTR
r -t 0.906452760 -s 29 -d -1 -p message -e 32 -c 2 -a 0 -i 20 -k RTR
r -t 0.906452775 -s 12 -d -1 -p message -e 32 -c 2 -a 0 -i 20 -k RTR
r -t 0.906452809 -s 33 -d -1 -p message -e 32 -c 2 -a 0 -i 20 -k RTR
r -t 0.906452830 -s 11 -d -1 -p message -e 32 -c 2 -a 0 -i 20 -k RTR
r -t 0.906452837 -s 8 -d -1 -p message -e 32 -c 2 -a 0 -i 20 -k RTR
r -t 0.906452924 -s 35 -d -1 -p message -e 32 -c 2 -a 0 -i 20 -k RTR
r -t 0.906452956 -s 16 -d -1 -p message -e 32 -c 2 -a 0 -i 20 -k RTR
r -t 0.906453041 -s 30 -d -1 -p message -e 32 -c 2 -a 0 -i 20 -k RTR
+ -t 0.974422618 -s 22 -d -1 -p message -e 32 -c 2 -a 0 -i 21 -k RTR 
- -t 0.974422618 -s 22 -d -1 -p message -e 32 -c 2 -a 0 -i 21 -k RTR
h -t 0.974422618 -s 22 -d -1 -p message -e 32 -c 2 -a 0 -i 21 -k RTR
r -t 0.976872769 -s 10 -d -1 -p message -e 32 -c 2 -a 0 -i 21 -k RTR
n -t 1.000000 -s 0 -x 216.000000 -y 453.000000 -U 3.991935 -V -0.253873 -T 114.230305
n -t 1.000000 -s 1 -x 723.000000 -y 577.000000 -U -0.819843 -V 0.572589 -T 153.687996
n -t 1.000000 -s 2 -x 543.000000 -y 264.000000 -U -1.998990 -V 0.063538 -T 204.603275
n -t 1.000000 -s 3 -x 212.000000 -y 364.000000 -U -0.840922 -V -1.814621 -T 112.971235
n -t 1.000000 -s 4 -x 201.000000 -y 80.000000 -U 0.865802 -V 0.500387 -T 303.764712
n -t 1.000000 -s 5 -x 596.000000 -y 148.000000 -U -1.998679 -V -0.072679 -T 220.145406
n -t 1.000000 -s 6 -x 14.000000 -y 401.000000 -U 3.946014 -V -0.654962 -T 184.743403
n -t 1.000000 -s 7 -x 643.000000 -y 491.000000 -U -1.654423 -V -2.502576 -T 191.003200
n -t 1.000000 -s 8 -x 676.000000 -y 396.000000 -U -2.020768 -V -2.217317 -T 162.809364
n -t 1.000000 -s 9 -x 595.000000 -y 553.000000 -U -1.859180 -V -0.737191 -T 246.883069
n -t 1.000000 -s 10 -x 73.000000 -y 735.000000 -U 1.625715 -V -2.521319 -T 102.724010
n -t 1.000000 -s 11 -x 488.000000 -y 415.000000 -U -4.074622 -V 2.897836 -T 67.981762
n -t 1.000000 -s 12 -x 589.000000 -y 395.000000 -U -0.881021 -V -0.473077 -T 583.414090
n -t 1.000000 -s 13 -x 576.000000 -y 538.000000 -U -1.916266 -V -2.308230 -T 22.961320
n -t 1.000000 -s 14 -x 151.000000 -y 343.000000 -U 1.951709 -V -0.436845 -T 141.926918
n -t 1.000000 -s 15 -x 212.000000 -y 117.000000 -U 0.883292 -V 0.468824 -T 588.707058
n -t 1.000000 -s 16 -x 674.000000 -y 750.000000 -U -3.473515 -V -1.983606 -T 113.429769
n -t 1.000000 -s 17 -x 287.000000 -y 526.000000 -U 3.606863 -V 1.729318 -T 121.435168
n -t 1.000000 -s 18 -x 224.000000 -y 86.000000 -U 0.583925 -V 1.912859 -T 49.663870
n -t 1.000000 -s 19 -x 721.000000 -y 12.000000 -U 0.215317 -V 4.995362 -T 23.221542
n -t 1.000000 -s 20 -x 360.000000 -y 71.000000 -U -0.383579 -V 0.923508 -T 479.692610
n -t 1.000000 -s 21 -x 414.000000 -y 62.000000 -U 0.345166 -V 0.938542 -T 257.846854
n -t 1.000000 -s 22 -x 107.000000 -y 705.000000 -U -0.044143 -V -0.999025 -T 430.419563
n -t 1.000000 -s 23 -x 50.000000 -y 303.000000 -U -0.811348 -V -3.916850 -T 35.743006
n -t 1.000000 -s 24 -x 225.000000 -y 142.000000 -U -1.466873 -V 3.721328 -T 101.576634
n -t 1.000000 -s 25 -x 66.000000 -y 86.000000 -U 4.714201 -V -1.666226 -T 49.213006
n -t 1.000000 -s 26 -x 60.000000 -y 354.000000 -U 2.944216 -V -0.575840 -T 215.337461
n -t 1.000000 -s 27 -x 363.000000 -y 221.000000 -U 0.999011 -V -0.044459 -T 382.378085
n -t 1.000000 -s 28 -x 144.000000 -y 28.000000 -U 0.618213 -V 3.951938 -T 173.079642
n -t 1.000000 -s 29 -x 701.000000 -y 442.000000 -U -0.520438 -V 1.931099 -T 73.015409
n -t 1.000000 -s 30 -x 412.000000 -y 705.000000 -U 0.174029 -V -3.996212 -T 155.146906
n -t 1.000000 -s 31 -x 738.000000 -y 22.000000 -U -3.293196 -V 2.270431 -T 186.748661
n -t 1.000000 -s 32 -x 12.000000 -y 396.000000 -U 4.749002 -V 1.564283 -T 124.657772
n -t 1.000000 -s 33 -x 653.000000 -y 711.000000 -U -1.756292 -V -0.956786 -T 76.297117
n -t 1.000000 -s 34 -x 597.000000 -y 606.000000 -U -0.867749 -V -0.497002 -T 498.991984
n -t 1.000000 -s 35 -x 707.000000 -y 384.000000 -U -0.961203 -V 0.275842 -T 471.284415
n -t 1.000000 -s 36 -x 372.000000 -y 723.000000 -U 0.644421 -V -2.929969 -T 232.766932
n -t 1.000000 -s 37 -x 611.000000 -y 197.000000 -U -3.577709 -V -1.788854 -T 11.739357
n -t 1.000000 -s 38 -x 657.000000 -y 619.000000 -U -0.872667 -V -0.488316 -T 317.417706
n -t 1.000000 -s 39 -x 703.000000 -y 647.000000 -U -2.821920 -V 1.018218 -T 68.747525
+ -t 1.012825328 -s 13 -d -1 -p tcp -e 40 -c 2 -a 0 -i 22 -k AGT 
- -t 1.012825328 -s 13 -d -1 -p tcp -e 40 -c 2 -a 0 -i 22 -k AGT
h -t 1.012825328 -s 13 -d -1 -p tcp -e 40 -c 2 -a 0 -i 22 -k AGT
+ -t 1.012825328 -s 13 -d 9 -p tcp -e 60 -c 2 -a 0 -i 22 -k RTR 
- -t 1.012825328 -s 13 -d 9 -p tcp -e 60 -c 2 -a 0 -i 22 -k RTR
h -t 1.012825328 -s 13 -d 9 -p tcp -e 60 -c 2 -a 0 -i 22 -k RTR
r -t 1.025953570 -s 9 -d 9 -p tcp -e 60 -c 2 -a 0 -i 22 -k AGT
+ -t 1.025953570 -s 9 -d -1 -p ack -e 40 -c 2 -a 0 -i 23 -k AGT 
- -t 1.025953570 -s 9 -d -1 -p ack -e 40 -c 2 -a 0 -i 23 -k AGT
h -t 1.025953570 -s 9 -d -1 -p ack -e 40 -c 2 -a 0 -i 23 -k AGT
+ -t 1.025953570 -s 9 -d 13 -p ack -e 60 -c 2 -a 0 -i 23 -k RTR 
- -t 1.025953570 -s 9 -d 13 -p ack -e 60 -c 2 -a 0 -i 23 -k RTR
h -t 1.025953570 -s 9 -d 13 -p ack -e 60 -c 2 -a 0 -i 23 -k RTR
r -t 1.029843651 -s 13 -d 13 -p ack -e 60 -c 2 -a 0 -i 23 -k AGT
+ -t 1.029843651 -s 13 -d -1 -p tcp -e 1040 -c 2 -a 0 -i 24 -k AGT 
- -t 1.029843651 -s 13 -d -1 -p tcp -e 1040 -c 2 -a 0 -i 24 -k AGT
h -t 1.029843651 -s 13 -d -1 -p tcp -e 1040 -c 2 -a 0 -i 24 -k AGT
+ -t 1.029843651 -s 13 -d 9 -p tcp -e 1060 -c 2 -a 0 -i 24 -k RTR 
- -t 1.029843651 -s 13 -d 9 -p tcp -e 1060 -c 2 -a 0 -i 24 -k RTR
h -t 1.029843651 -s 13 -d 9 -p tcp -e 1060 -c 2 -a 0 -i 24 -k RTR
r -t 1.034245732 -s 9 -d 9 -p tcp -e 36 -c 2 -a 0 -i 24 -k AGT
+ -t 1.034245732 -s 9 -d -1 -p ack -e 40 -c 2 -a 0 -i 25 -k AGT 
- -t 1.034245732 -s 9 -d -1 -p ack -e 40 -c 2 -a 0 -i 25 -k AGT
h -t 1.034245732 -s 9 -d -1 -p ack -e 40 -c 2 -a 0 -i 25 -k AGT
+ -t 1.034245732 -s 9 -d 13 -p ack -e 60 -c 2 -a 0 -i 25 -k RTR 
- -t 1.034245732 -s 9 -d 13 -p ack -e 60 -c 2 -a 0 -i 25 -k RTR
h -t 1.034245732 -s 9 -d 13 -p ack -e 60 -c 2 -a 0 -i 25 -k RTR
r -t 1.038775813 -s 13 -d 13 -p ack -e 60 -c 2 -a 0 -i 25 -k AGT
+ -t 1.049263177 -s 8 -d -1 -p message -e 32 -c 2 -a 0 -i 26 -k RTR 
- -t 1.049263177 -s 8 -d -1 -p message -e 32 -c 2 -a 0 -i 26 -k RTR
h -t 1.049263177 -s 8 -d -1 -p message -e 32 -c 2 -a 0 -i 26 -k RTR
r -t 1.052673287 -s 35 -d -1 -p message -e 32 -c 2 -a 0 -i 26 -k RTR
r -t 1.052673352 -s 29 -d -1 -p message -e 32 -c 2 -a 0 -i 26 -k RTR
r -t 1.052673466 -s 12 -d -1 -p message -e 32 -c 2 -a 0 -i 26 -k RTR
r -t 1.052673512 -s 7 -d -1 -p message -e 32 -c 2 -a 0 -i 26 -k RTR
r -t 1.052673755 -s 13 -d -1 -p message -e 32 -c 2 -a 0 -i 26 -k RTR
r -t 1.052673766 -s 9 -d -1 -p message -e 32 -c 2 -a 0 -i 26 -k RTR
r -t 1.052673800 -s 1 -d -1 -p message -e 32 -c 2 -a 0 -i 26 -k RTR
r -t 1.052673801 -s 2 -d -1 -p message -e 32 -c 2 -a 0 -i 26 -k RTR
r -t 1.052673807 -s 11 -d -1 -p message -e 32 -c 2 -a 0 -i 26 -k RTR
r -t 1.052673874 -s 37 -d -1 -p message -e 32 -c 2 -a 0 -i 26 -k RTR
r -t 1.052673923 -s 38 -d -1 -p message -e 32 -c 2 -a 0 -i 26 -k RTR
r -t 1.052673925 -s 34 -d -1 -p message -e 32 -c 2 -a 0 -i 26 -k RTR
+ -t 1.053083472 -s 20 -d -1 -p tcp -e 40 -c 2 -a 0 -i 27 -k AGT 
- -t 1.053083472 -s 20 -d -1 -p tcp -e 40 -c 2 -a 0 -i 27 -k AGT
h -t 1.053083472 -s 20 -d -1 -p tcp -e 40 -c 2 -a 0 -i 27 -k AGT
+ -t 1.107219846 -s 34 -d -1 -p tcp -e 40 -c 2 -a 0 -i 28 -k AGT 
- -t 1.107219846 -s 34 -d -1 -p tcp -e 40 -c 2 -a 0 -i 28 -k AGT
h -t 1.107219846 -s 34 -d -1 -p tcp -e 40 -c 2 -a 0 -i 28 -k AGT
+ -t 1.107219846 -s 34 -d 9 -p tcp -e 60 -c 2 -a 0 -i 28 -k RTR 
- -t 1.107219846 -s 34 -d 9 -p tcp -e 60 -c 2 -a 0 -i 28 -k RTR
h -t 1.107219846 -s 34 -d 9 -p tcp -e 60 -c 2 -a 0 -i 28 -k RTR
r -t 1.121628377 -s 9 -d 9 -p tcp -e 60 -c 2 -a 0 -i 28 -k AGT
+ -t 1.121628377 -s 9 -d -1 -p ack -e 40 -c 2 -a 0 -i 29 -k AGT 
- -t 1.121628377 -s 9 -d -1 -p ack -e 40 -c 2 -a 0 -i 29 -k AGT
h -t 1.121628377 -s 9 -d -1 -p ack -e 40 -c 2 -a 0 -i 29 -k AGT
+ -t 1.121628377 -s 9 -d 34 -p ack -e 60 -c 2 -a 0 -i 29 -k RTR 
- -t 1.121628377 -s 9 -d 34 -p ack -e 60 -c 2 -a 0 -i 29 -k RTR
h -t 1.121628377 -s 9 -d 34 -p ack -e 60 -c 2 -a 0 -i 29 -k RTR
r -t 1.126158553 -s 34 -d 34 -p ack -e 60 -c 2 -a 0 -i 29 -k AGT
+ -t 1.126158553 -s 34 -d -1 -p tcp -e 1040 -c 2 -a 0 -i 30 -k AGT 
- -t 1.126158553 -s 34 -d -1 -p tcp -e 1040 -c 2 -a 0 -i 30 -k AGT
h -t 1.126158553 -s 34 -d -1 -p tcp -e 1040 -c 2 -a 0 -i 30 -k AGT
+ -t 1.126158553 -s 34 -d 9 -p tcp -e 1060 -c 2 -a 0 -i 30 -k RTR 
- -t 1.126158553 -s 34 -d 9 -p tcp -e 1060 -c 2 -a 0 -i 30 -k RTR
h -t 1.126158553 -s 34 -d 9 -p tcp -e 1060 -c 2 -a 0 -i 30 -k RTR
r -t 1.131200730 -s 9 -d 9 -p tcp -e 36 -c 2 -a 0 -i 30 -k AGT
+ -t 1.131200730 -s 9 -d -1 -p ack -e 40 -c 2 -a 0 -i 31 -k AGT 
- -t 1.131200730 -s 9 -d -1 -p ack -e 40 -c 2 -a 0 -i 31 -k AGT
h -t 1.131200730 -s 9 -d -1 -p ack -e 40 -c 2 -a 0 -i 31 -k AGT
+ -t 1.131200730 -s 9 -d 34 -p ack -e 60 -c 2 -a 0 -i 31 -k RTR 
- -t 1.131200730 -s 9 -d 34 -p ack -e 60 -c 2 -a 0 -i 31 -k RTR
h -t 1.131200730 -s 9 -d 34 -p ack -e 60 -c 2 -a 0 -i 31 -k RTR
r -t 1.135730907 -s 34 -d 34 -p ack -e 60 -c 2 -a 0 -i 31 -k AGT
+ -t 1.157653604 -s 32 -d -1 -p message -e 32 -c 2 -a 0 -i 32 -k RTR 
- -t 1.157653604 -s 32 -d -1 -p message -e 32 -c 2 -a 0 -i 32 -k RTR
h -t 1.157653604 -s 32 -d -1 -p message -e 32 -c 2 -a 0 -i 32 -k RTR
r -t 1.162343620 -s 6 -d -1 -p message -e 32 -c 2 -a 0 -i 32 -k RTR
r -t 1.162343816 -s 26 -d -1 -p message -e 32 -c 2 -a 0 -i 32 -k RTR
r -t 1.162343940 -s 23 -d -1 -p message -e 32 -c 2 -a 0 -i 32 -k RTR
r -t 1.162344098 -s 14 -d -1 -p message -e 32 -c 2 -a 0 -i 32 -k RTR
r -t 1.162344276 -s 3 -d -1 -p message -e 32 -c 2 -a 0 -i 32 -k RTR
r -t 1.162344309 -s 0 -d -1 -p message -e 32 -c 2 -a 0 -i 32 -k RTR
+ -t 1.240586482 -s 6 -d -1 -p message -e 32 -c 2 -a 0 -i 33 -k RTR 
- -t 1.240586482 -s 6 -d -1 -p message -e 32 -c 2 -a 0 -i 33 -k RTR
h -t 1.240586482 -s 6 -d -1 -p message -e 32 -c 2 -a 0 -i 33 -k RTR
r -t 1.243036498 -s 32 -d -1 -p message -e 32 -c 2 -a 0 -i 33 -k RTR
r -t 1.243036701 -s 26 -d -1 -p message -e 32 -c 2 -a 0 -i 33 -k RTR
r -t 1.243036831 -s 23 -d -1 -p message -e 32 -c 2 -a 0 -i 33 -k RTR
r -t 1.243036976 -s 14 -d -1 -p message -e 32 -c 2 -a 0 -i 33 -k RTR
r -t 1.243037150 -s 3 -d -1 -p message -e 32 -c 2 -a 0 -i 33 -k RTR
r -t 1.243037178 -s 0 -d -1 -p message -e 32 -c 2 -a 0 -i 33 -k RTR
+ -t 1.254386373 -s 24 -d -1 -p message -e 32 -c 2 -a 0 -i 34 -k RTR 
- -t 1.254386373 -s 24 -d -1 -p message -e 32 -c 2 -a 0 -i 34 -k RTR
h -t 1.254386373 -s 24 -d -1 -p message -e 32 -c 2 -a 0 -i 34 -k RTR
r -t 1.259076469 -s 15 -d -1 -p message -e 32 -c 2 -a 0 -i 34 -k RTR
r -t 1.259076561 -s 18 -d -1 -p message -e 32 -c 2 -a 0 -i 34 -k RTR
r -t 1.259076597 -s 4 -d -1 -p message -e 32 -c 2 -a 0 -i 34 -k RTR
r -t 1.259076838 -s 28 -d -1 -p message -e 32 -c 2 -a 0 -i 34 -k RTR
r -t 1.259076884 -s 20 -d -1 -p message -e 32 -c 2 -a 0 -i 34 -k RTR
r -t 1.259076903 -s 27 -d -1 -p message -e 32 -c 2 -a 0 -i 34 -k RTR
r -t 1.259076932 -s 25 -d -1 -p message -e 32 -c 2 -a 0 -i 34 -k RTR
r -t 1.259077060 -s 21 -d -1 -p message -e 32 -c 2 -a 0 -i 34 -k RTR
r -t 1.259077083 -s 14 -d -1 -p message -e 32 -c 2 -a 0 -i 34 -k RTR
r -t 1.259077110 -s 3 -d -1 -p message -e 32 -c 2 -a 0 -i 34 -k RTR
r -t 1.259077161 -s 23 -d -1 -p message -e 32 -c 2 -a 0 -i 34 -k RTR