n -t * -s 0  -x 282 -y 234 -Z 0 -z 20  -v circle -c black
n -t * -s 1  -x 102 -y 227 -Z 0 -z 20  -v circle -c black
n -t * -s 2  -x 105 -y 226 -Z 0 -z 20  -v circle -c black
n -t * -s 3  -x 190 -y 53 -Z 0 -z 20  -v circle -c black
n -t * -s 4  -x 123 -y 194 -Z 0 -z 20  -v circle -c black
n -t * -s 5  -x 58 -y 273 -Z 0 -z 20  -v circle -c black
n -t * -s 6  -x 69 -y 337 -Z 0 -z 20  -v circle -c black
n -t * -s 7  -x 480 -y 87 -Z 0 -z 20  -v circle -c black
n -t * -s 8  -x 74 -y 104 -Z 0 -z 20  -v circle -c black
n -t * -s 9  -x 58 -y 272 -Z 0 -z 20  -v circle -c black
n -t * -s 10  -x 440 -y 314 -Z 0 -z 20  -v circle -c black
n -t * -s 11  -x 365 -y 326 -Z 0 -z 20  -v circle -c black
n -t * -s 12  -x 128 -y 186 -Z 0 -z 20  -v circle -c black
n -t * -s 13  -x 391 -y 224 -Z 0 -z 20  -v circle -c black
n -t * -s 14  -x 465 -y 247 -Z 0 -z 20  -v circle -c black
n -t * -s 15  -x 380 -y 280 -Z 0 -z 20  -v circle -c black
n -t * -s 16  -x 27 -y 214 -Z 0 -z 20  -v circle -c black
n -t * -s 17  -x 370 -y 487 -Z 0 -z 20  -v circle -c black
n -t * -s 18  -x 213 -y 299 -Z 0 -z 20  -v circle -c black
n -t * -s 19  -x 98 -y 244 -Z 0 -z 20  -v circle -c black
n -t * -s 20  -x 387 -y 118 -Z 0 -z 20  -v circle -c black
n -t * -s 21  -x 431 -y 158 -Z 0 -z 20  -v circle -c black
n -t * -s 22  -x 210 -y 384 -Z 0 -z 20  -v circle -c black
n -t * -s 23  -x 144 -y 275 -Z 0 -z 20  -v circle -c black
n -t * -s 24  -x 351 -y 309 -Z 0 -z 20  -v circle -c black
n -t * -s 25  -x 162 -y 76 -Z 0 -z 20  -v circle -c black
n -t * -s 26  -x 459 -y 235 -Z 0 -z 20  -v circle -c black
n -t * -s 27  -x 2 -y 170 -Z 0 -z 20  -v circle -c black
n -t * -s 28  -x 7 -y 348 -Z 0 -z 20  -v circle -c black
n -t * -s 29  -x 64 -y 442 -Z 0 -z 20  -v circle -c black
n -t * -s 30  -x 254 -y 341 -Z 0 -z 20  -v circle -c black
n -t * -s 31  -x 394 -y 112 -Z 0 -z 20  -v circle -c black
n -t * -s 32  -x 2 -y 315 -Z 0 -z 20  -v circle -c black
n -t * -s 33  -x 226 -y 15 -Z 0 -z 20  -v circle -c black
n -t * -s 34  -x 112 -y 483 -Z 0 -z 20  -v circle -c black
n -t * -s 35  -x 238 -y 119 -Z 0 -z 20  -v circle -c black
n -t * -s 36  -x 170 -y 401 -Z 0 -z 20  -v circle -c black
n -t * -s 37  -x 13 -y 158 -Z 0 -z 20  -v circle -c black
n -t * -s 38  -x 158 -y 120 -Z 0 -z 20  -v circle -c black
n -t * -s 39  -x 402 -y 51 -Z 0 -z 20  -v circle -c black
V -t * -v 1.0a5 -a 0
W -t * -x 500 -y 500
A -t * -n 1 -p 0 -o 0x7fffffff -c 30 -a 1
A -t * -h 1 -m 1073741823 -s 0
+ -t 0.036328457 -s 11 -d -1 -p message -e 32 -c 2 -a 0 -i 0 -k RTR 
- -t 0.036328457 -s 11 -d -1 -p message -e 32 -c 2 -a 0 -i 0 -k RTR
h -t 0.036328457 -s 11 -d -1 -p message -e 32 -c 2 -a 0 -i 0 -k RTR
r -t 0.038778531 -s 24 -d -1 -p message -e 32 -c 2 -a 0 -i 0 -k RTR
r -t 0.038778618 -s 15 -d -1 -p message -e 32 -c 2 -a 0 -i 0 -k RTR
r -t 0.038778710 -s 10 -d -1 -p message -e 32 -c 2 -a 0 -i 0 -k RTR
r -t 0.038778808 -s 13 -d -1 -p message -e 32 -c 2 -a 0 -i 0 -k RTR
r -t 0.038778830 -s 30 -d -1 -p message -e 32 -c 2 -a 0 -i 0 -k RTR
r -t 0.038778870 -s 0 -d -1 -p message -e 32 -c 2 -a 0 -i 0 -k RTR
r -t 0.038778882 -s 14 -d -1 -p message -e 32 -c 2 -a 0 -i 0 -k RTR
r -t 0.038778893 -s 26 -d -1 -p message -e 32 -c 2 -a 0 -i 0 -k RTR
r -t 0.038778972 -s 18 -d -1 -p message -e 32 -c 2 -a 0 -i 0 -k RTR
r -t 0.038778994 -s 17 -d -1 -p message -e 32 -c 2 -a 0 -i 0 -k RTR
r -t 0.038779009 -s 22 -d -1 -p message -e 32 -c 2 -a 0 -i 0 -k RTR
r -t 0.038779059 -s 21 -d -1 -p message -e 32 -c 2 -a 0 -i 0 -k RTR
r -t 0.038779154 -s 36 -d -1 -p message -e 32 -c 2 -a 0 -i 0 -k RTR
r -t 0.038779154 -s 20 -d -1 -p message -e 32 -c 2 -a 0 -i 0 -k RTR
r -t 0.038779177 -s 31 -d -1 -p message -e 32 -c 2 -a 0 -i 0 -k RTR
r -t 0.038779213 -s 23 -d -1 -p message -e 32 -c 2 -a 0 -i 0 -k RTR
r -t 0.038779267 -s 35 -d -1 -p message -e 32 -c 2 -a 0 -i 0 -k RTR
+ -t 0.073282045 -s 4 -d -1 -p message -e 32 -c 2 -a 0 -i 1 -k RTR 
- -t 0.073282045 -s 4 -d -1 -p message -e 32 -c 2 -a 0 -i 1 -k RTR
h -t 0.073282045 -s 4 -d -1 -p message -e 32 -c 2 -a 0 -i 1 -k RTR
r -t 0.076692077 -s 12 -d -1 -p message -e 32 -c 2 -a 0 -i 1 -k RTR
r -t 0.076692167 -s 2 -d -1 -p message -e 32 -c 2 -a 0 -i 1 -k RTR
r -t 0.076692175 -s 1 -d -1 -p message -e 32 -c 2 -a 0 -i 1 -k RTR
r -t 0.076692231 -s 19 -d -1 -p message -e 32 -c 2 -a 0 -i 1 -k RTR
r -t 0.076692318 -s 38 -d -1 -p message -e 32 -c 2 -a 0 -i 1 -k RTR
r -t 0.076692324 -s 23 -d -1 -p message -e 32 -c 2 -a 0 -i 1 -k RTR
r -t 0.076692372 -s 16 -d -1 -p message -e 32 -c 2 -a 0 -i 1 -k RTR
r -t 0.076692384 -s 9 -d -1 -p message -e 32 -c 2 -a 0 -i 1 -k RTR
r -t 0.076692386 -s 5 -d -1 -p message -e 32 -c 2 -a 0 -i 1 -k RTR
r -t 0.076692387 -s 8 -d -1 -p message -e 32 -c 2 -a 0 -i 1 -k RTR
r -t 0.076692431 -s 37 -d -1 -p message -e 32 -c 2 -a 0 -i 1 -k RTR
r -t 0.076692456 -s 27 -d -1 -p message -e 32 -c 2 -a 0 -i 1 -k RTR
r -t 0.076692459 -s 25 -d -1 -p message -e 32 -c 2 -a 0 -i 1 -k RTR
r -t 0.076692503 -s 35 -d -1 -p message -e 32 -c 2 -a 0 -i 1 -k RTR
r -t 0.076692506 -s 18 -d -1 -p message -e 32 -c 2 -a 0 -i 1 -k RTR
r -t 0.076692555 -s 6 -d -1 -p message -e 32 -c 2 -a 0 -i 1 -k RTR
r -t 0.076692565 -s 3 -d -1 -p message -e 32 -c 2 -a 0 -i 1 -k RTR
r -t 0.076692592 -s 0 -d -1 -p message -e 32 -c 2 -a 0 -i 1 -k RTR
r -t 0.076692615 -s 32 -d -1 -p message -e 32 -c 2 -a 0 -i 1 -k RTR
r -t 0.076692688 -s 28 -d -1 -p message -e 32 -c 2 -a 0 -i 1 -k RTR
r -t 0.076692701 -s 30 -d -1 -p message -e 32 -c 2 -a 0 -i 1 -k RTR
r -t 0.076692733 -s 33 -d -1 -p message -e 32 -c 2 -a 0 -i 1 -k RTR
r -t 0.076692742 -s 22 -d -1 -p message -e 32 -c 2 -a 0 -i 1 -k RTR
r -t 0.076692753 -s 36 -d -1 -p message -e 32 -c 2 -a 0 -i 1 -k RTR
+ -t 0.088584275 -s 31 -d -1 -p message -e 32 -c 2 -a 0 -i 2 -k RTR 
- -t 0.088584275 -s 31 -d -1 -p message -e 32 -c 2 -a 0 -i 2 -k RTR
h -t 0.088584275 -s 31 -d -1 -p message -e 32 -c 2 -a 0 -i 2 -k RTR
r -t 0.092634305 -s 20 -d -1 -p message -e 32 -c 2 -a 0 -i 2 -k RTR
r -t 0.092634471 -s 21 -d -1 -p message -e 32 -c 2 -a 0 -i 2 -k RTR
r -t 0.092634480 -s 39 -d -1 -p message -e 32 -c 2 -a 0 -i 2 -k RTR
r -t 0.092634573 -s 7 -d -1 -p message -e 32 -c 2 -a 0 -i 2 -k RTR
r -t 0.092634648 -s 13 -d -1 -p message -e 32 -c 2 -a 0 -i 2 -k RTR
r -t 0.092634738 -s 26 -d -1 -p message -e 32 -c 2 -a 0 -i 2 -k RTR
r -t 0.092634783 -s 14 -d -1 -p message -e 32 -c 2 -a 0 -i 2 -k RTR
r -t 0.092634795 -s 35 -d -1 -p message -e 32 -c 2 -a 0 -i 2 -k RTR
r -t 0.092634827 -s 0 -d -1 -p message -e 32 -c 2 -a 0 -i 2 -k RTR
r -t 0.092634837 -s 15 -d -1 -p message -e 32 -c 2 -a 0 -i 2 -k RTR
r -t 0.092634921 -s 33 -d -1 -p message -e 32 -c 2 -a 0 -i 2 -k RTR
r -t 0.092634947 -s 24 -d -1 -p message -e 32 -c 2 -a 0 -i 2 -k RTR
r -t 0.092634965 -s 10 -d -1 -p message -e 32 -c 2 -a 0 -i 2 -k RTR
r -t 0.092634983 -s 3 -d -1 -p message -e 32 -c 2 -a 0 -i 2 -k RTR
r -t 0.092634995 -s 11 -d -1 -p message -e 32 -c 2 -a 0 -i 2 -k RTR
r -t 0.092635057 -s 25 -d -1 -p message -e 32 -c 2 -a 0 -i 2 -k RTR
r -t 0.092635062 -s 38 -d -1 -p message -e 32 -c 2 -a 0 -i 2 -k RTR
+ -t 0.126846076 -s 36 -d -1 -p message -e 32 -c 2 -a 0 -i 3 -k RTR 
- -t 0.126846076 -s 36 -d -1 -p message -e 32 -c 2 -a 0 -i 3 -k RTR
h -t 0.126846076 -s 36 -d -1 -p message -e 32 -c 2 -a 0 -i 3 -k RTR
+ -t 0.129642904 -s 28 -d -1 -p message -e 32 -c 2 -a 0 -i 4 -k RTR 
- -t 0.129642904 -s 28 -d -1 -p message -e 32 -c 2 -a 0 -i 4 -k RTR
h -t 0.129642904 -s 28 -d -1 -p message -e 32 -c 2 -a 0 -i 4 -k RTR
r -t 0.130896221 -s 22 -d -1 -p message -e 32 -c 2 -a 0 -i 3 -k RTR
r -t 0.130896411 -s 34 -d -1 -p message -e 32 -c 2 -a 0 -i 3 -k RTR
r -t 0.130896420 -s 30 -d -1 -p message -e 32 -c 2 -a 0 -i 3 -k RTR
r -t 0.130896445 -s 18 -d -1 -p message -e 32 -c 2 -a 0 -i 3 -k RTR
r -t 0.130896455 -s 29 -d -1 -p message -e 32 -c 2 -a 0 -i 3 -k RTR
r -t 0.130896474 -s 6 -d -1 -p message -e 32 -c 2 -a 0 -i 3 -k RTR
r -t 0.130896505 -s 23 -d -1 -p message -e 32 -c 2 -a 0 -i 3 -k RTR
r -t 0.130896643 -s 5 -d -1 -p message -e 32 -c 2 -a 0 -i 3 -k RTR
r -t 0.130896645 -s 9 -d -1 -p message -e 32 -c 2 -a 0 -i 3 -k RTR
r -t 0.130896647 -s 28 -d -1 -p message -e 32 -c 2 -a 0 -i 3 -k RTR
r -t 0.130896652 -s 19 -d -1 -p message -e 32 -c 2 -a 0 -i 3 -k RTR
r -t 0.130896698 -s 2 -d -1 -p message -e 32 -c 2 -a 0 -i 3 -k RTR
r -t 0.130896699 -s 1 -d -1 -p message -e 32 -c 2 -a 0 -i 3 -k RTR
r -t 0.130896705 -s 32 -d -1 -p message -e 32 -c 2 -a 0 -i 3 -k RTR
r -t 0.130896746 -s 0 -d -1 -p message -e 32 -c 2 -a 0 -i 3 -k RTR
r -t 0.130896753 -s 24 -d -1 -p message -e 32 -c 2 -a 0 -i 3 -k RTR
r -t 0.130896772 -s 11 -d -1 -p message -e 32 -c 2 -a 0 -i 3 -k RTR
r -t 0.130896783 -s 4 -d -1 -p message -e 32 -c 2 -a 0 -i 3 -k RTR
r -t 0.130896802 -s 17 -d -1 -p message -e 32 -c 2 -a 0 -i 3 -k RTR
r -t 0.130896806 -s 12 -d -1 -p message -e 32 -c 2 -a 0 -i 3 -k RTR
r -t 0.130896861 -s 16 -d -1 -p message -e 32 -c 2 -a 0 -i 3 -k RTR
r -t 0.130896884 -s 15 -d -1 -p message -e 32 -c 2 -a 0 -i 3 -k RTR
r -t 0.133373016 -s 32 -d -1 -p message -e 32 -c 2 -a 0 -i 4 -k RTR
r -t 0.133373114 -s 6 -d -1 -p message -e 32 -c 2 -a 0 -i 4 -k RTR
r -t 0.133373207 -s 5 -d -1 -p message -e 32 -c 2 -a 0 -i 4 -k RTR
r -t 0.133373209 -s 9 -d -1 -p message -e 32 -c 2 -a 0 -i 4 -k RTR
r -t 0.133373271 -s 29 -d -1 -p message -e 32 -c 2 -a 0 -i 4 -k RTR
r -t 0.133373356 -s 16 -d -1 -p message -e 32 -c 2 -a 0 -i 4 -k RTR
r -t 0.133373365 -s 19 -d -1 -p message -e 32 -c 2 -a 0 -i 4 -k RTR
r -t 0.133373417 -s 1 -d -1 -p message -e 32 -c 2 -a 0 -i 4 -k RTR
r -t 0.133373422 -s 23 -d -1 -p message -e 32 -c 2 -a 0 -i 4 -k RTR
r -t 0.133373426 -s 2 -d -1 -p message -e 32 -c 2 -a 0 -i 4 -k RTR
r -t 0.133373474 -s 34 -d -1 -p message -e 32 -c 2 -a 0 -i 4 -k RTR
r -t 0.133373476 -s 36 -d -1 -p message -e 32 -c 2 -a 0 -i 4 -k RTR
r -t 0.133373498 -s 27 -d -1 -p message -e 32 -c 2 -a 0 -i 4 -k RTR
r -t 0.133373538 -s 37 -d -1 -p message -e 32 -c 2 -a 0 -i 4 -k RTR
r -t 0.133373547 -s 4 -d -1 -p message -e 32 -c 2 -a 0 -i 4 -k RTR
r -t 0.133373578 -s 12 -d -1 -p message -e 32 -c 2 -a 0 -i 4 -k RTR
r -t 0.133373592 -s 22 -d -1 -p message -e 32 -c 2 -a 0 -i 4 -k RTR
r -t 0.133373610 -s 18 -d -1 -p message -e 32 -c 2 -a 0 -i 4 -k RTR
r -t 0.133373728 -s 30 -d -1 -p message -e 32 -c 2 -a 0 -i 4 -k RTR
+ -t 0.247164037 -s 15 -d -1 -p message -e 32 -c 2 -a 0 -i 5 -k RTR 
- -t 0.247164037 -s 15 -d -1 -p message -e 32 -c 2 -a 0 -i 5 -k RTR
h -t 0.247164037 -s 15 -d -1 -p message -e 32 -c 2 -a 0 -i 5 -k RTR
r -t 0.250574173 -s 24 -d -1 -p message -e 32 -c 2 -a 0 -i 5 -k RTR
r -t 0.250574198 -s 11 -d -1 -p message -e 32 -c 2 -a 0 -i 5 -k RTR
r -t 0.250574227 -s 13 -d -1 -p message -e 32 -c 2 -a 0 -i 5 -k RTR
r -t 0.250574267 -s 10 -d -1 -p message -e 32 -c 2 -a 0 -i 5 -k RTR
r -t 0.250574340 -s 26 -d -1 -p message -e 32 -c 2 -a 0 -i 5 -k RTR
r -t 0.250574341 -s 14 -d -1 -p message -e 32 -c 2 -a 0 -i 5 -k RTR
r -t 0.250574398 -s 0 -d -1 -p message -e 32 -c 2 -a 0 -i 5 -k RTR
r -t 0.250574477 -s 21 -d -1 -p message -e 32 -c 2 -a 0 -i 5 -k RTR
r -t 0.250574503 -s 30 -d -1 -p message -e 32 -c 2 -a 0 -i 5 -k RTR
r -t 0.250574577 -s 20 -d -1 -p message -e 32 -c 2 -a 0 -i 5 -k RTR
r -t 0.250574597 -s 18 -d -1 -p message -e 32 -c 2 -a 0 -i 5 -k RTR
r -t 0.250574599 -s 31 -d -1 -p message -e 32 -c 2 -a 0 -i 5 -k RTR
r -t 0.250574701 -s 22 -d -1 -p message -e 32 -c 2 -a 0 -i 5 -k RTR
r -t 0.250574728 -s 17 -d -1 -p message -e 32 -c 2 -a 0 -i 5 -k RTR
r -t 0.250574752 -s 35 -d -1 -p message -e 32 -c 2 -a 0 -i 5 -k RTR
r -t 0.250574761 -s 7 -d -1 -p message -e 32 -c 2 -a 0 -i 5 -k RTR
r -t 0.250574804 -s 39 -d -1 -p message -e 32 -c 2 -a 0 -i 5 -k RTR
r -t 0.250574824 -s 23 -d -1 -p message -e 32 -c 2 -a 0 -i 5 -k RTR
r -t 0.250574845 -s 36 -d -1 -p message -e 32 -c 2 -a 0 -i 5 -k RTR
+ -t 0.321822596 -s 26 -d -1 -p message -e 32 -c 2 -a 0 -i 6 -k RTR 
- -t 0.321822596 -s 26 -d -1 -p message -e 32 -c 2 -a 0 -i 6 -k RTR
h -t 0.321822596 -s 26 -d -1 -p message -e 32 -c 2 -a 0 -i 6 -k RTR
r -t 0.324272641 -s 14 -d -1 -p message -e 32 -c 2 -a 0 -i 6 -k RTR
r -t 0.324272826 -s 13 -d -1 -p message -e 32 -c 2 -a 0 -i 6 -k RTR
r -t 0.324272867 -s 10 -d -1 -p message -e 32 -c 2 -a 0 -i 6 -k RTR
r -t 0.324272870 -s 21 -d -1 -p message -e 32 -c 2 -a 0 -i 6 -k RTR
r -t 0.324272899 -s 15 -d -1 -p message -e 32 -c 2 -a 0 -i 6 -k RTR
r -t 0.324273033 -s 11 -d -1 -p message -e 32 -c 2 -a 0 -i 6 -k RTR
r -t 0.324273033 -s 24 -d -1 -p message -e 32 -c 2 -a 0 -i 6 -k RTR
r -t 0.324273054 -s 20 -d -1 -p message -e 32 -c 2 -a 0 -i 6 -k RTR
r -t 0.324273060 -s 31 -d -1 -p message -e 32 -c 2 -a 0 -i 6 -k RTR
r -t 0.324273095 -s 7 -d -1 -p message -e 32 -c 2 -a 0 -i 6 -k RTR
r -t 0.324273186 -s 0 -d -1 -p message -e 32 -c 2 -a 0 -i 6 -k RTR
r -t 0.324273238 -s 39 -d -1 -p message -e 32 -c 2 -a 0 -i 6 -k RTR
r -t 0.324273366 -s 30 -d -1 -p message -e 32 -c 2 -a 0 -i 6 -k RTR
r -t 0.324273428 -s 35 -d -1 -p message -e 32 -c 2 -a 0 -i 6 -k RTR
+ -t 0.349191800 -s 3 -d -1 -p message -e 32 -c 2 -a 0 -i 7 -k RTR 
- -t 0.349191800 -s 3 -d -1 -p message -e 32 -c 2 -a 0 -i 7 -k RTR
h -t 0.349191800 -s 3 -d -1 -p message -e 32 -c 2 -a 0 -i 7 -k RTR
r -t 0.352921921 -s 25 -d -1 -p message -e 32 -c 2 -a 0 -i 7 -k RTR
r -t 0.352921975 -s 33 -d -1 -p message -e 32 -c 2 -a 0 -i 7 -k RTR
r -t 0.352922048 -s 38 -d -1 -p message -e 32 -c 2 -a 0 -i 7 -k RTR
r -t 0.352922072 -s 35 -d -1 -p message -e 32 -c 2 -a 0 -i 7 -k RTR
r -t 0.352922223 -s 8 -d -1 -p message -e 32 -c 2 -a 0 -i 7 -k RTR
r -t 0.352922289 -s 12 -d -1 -p message -e 32 -c 2 -a 0 -i 7 -k RTR
r -t 0.352922321 -s 4 -d -1 -p message -e 32 -c 2 -a 0 -i 7 -k RTR
r -t 0.352922443 -s 2 -d -1 -p message -e 32 -c 2 -a 0 -i 7 -k RTR
r -t 0.352922450 -s 1 -d -1 -p message -e 32 -c 2 -a 0 -i 7 -k RTR
r -t 0.352922477 -s 0 -d -1 -p message -e 32 -c 2 -a 0 -i 7 -k RTR
r -t 0.352922486 -s 37 -d -1 -p message -e 32 -c 2 -a 0 -i 7 -k RTR
r -t 0.352922492 -s 20 -d -1 -p message -e 32 -c 2 -a 0 -i 7 -k RTR
r -t 0.352922507 -s 19 -d -1 -p message -e 32 -c 2 -a 0 -i 7 -k RTR
r -t 0.352922507 -s 39 -d -1 -p message -e 32 -c 2 -a 0 -i 7 -k RTR
r -t 0.352922508 -s 31 -d -1 -p message -e 32 -c 2 -a 0 -i 7 -k RTR
r -t 0.352922538 -s 27 -d -1 -p message -e 32 -c 2 -a 0 -i 7 -k RTR
r -t 0.352922556 -s 23 -d -1 -p message -e 32 -c 2 -a 0 -i 7 -k RTR
r -t 0.352922564 -s 16 -d -1 -p message -e 32 -c 2 -a 0 -i 7 -k RTR
r -t 0.352922624 -s 18 -d -1 -p message -e 32 -c 2 -a 0 -i 7 -k RTR
+ -t 0.356017125 -s 29 -d -1 -p message -e 32 -c 2 -a 0 -i 8 -k RTR 
- -t 0.356017125 -s 29 -d -1 -p message -e 32 -c 2 -a 0 -i 8 -k RTR
h -t 0.356017125 -s 29 -d -1 -p message -e 32 -c 2 -a 0 -i 8 -k RTR
r -t 0.359427335 -s 34 -d -1 -p message -e 32 -c 2 -a 0 -i 8 -k RTR
r -t 0.359427475 -s 6 -d -1 -p message -e 32 -c 2 -a 0 -i 8 -k RTR
r -t 0.359427491 -s 28 -d -1 -p message -e 32 -c 2 -a 0 -i 8 -k RTR
r -t 0.359427504 -s 36 -d -1 -p message -e 32 -c 2 -a 0 -i 8 -k RTR
r -t 0.359427596 -s 32 -d -1 -p message -e 32 -c 2 -a 0 -i 8 -k RTR
r -t 0.359427649 -s 22 -d -1 -p message -e 32 -c 2 -a 0 -i 8 -k RTR
r -t 0.359427689 -s 5 -d -1 -p message -e 32 -c 2 -a 0 -i 8 -k RTR
r -t 0.359427692 -s 9 -d -1 -p message -e 32 -c 2 -a 0 -i 8 -k RTR
r -t 0.359427742 -s 23 -d -1 -p message -e 32 -c 2 -a 0 -i 8 -k RTR
r -t 0.359427795 -s 19 -d -1 -p message -e 32 -c 2 -a 0 -i 8 -k RTR
r -t 0.359427813 -s 18 -d -1 -p message -e 32 -c 2 -a 0 -i 8 -k RTR
r -t 0.359427842 -s 30 -d -1 -p message -e 32 -c 2 -a 0 -i 8 -k RTR
r -t 0.359427853 -s 1 -d -1 -p message -e 32 -c 2 -a 0 -i 8 -k RTR
r -t 0.359427858 -s 2 -d -1 -p message -e 32 -c 2 -a 0 -i 8 -k RTR
r -t 0.359427895 -s 16 -d -1 -p message -e 32 -c 2 -a 0 -i 8 -k RTR
+ -t 0.421784672 -s 10 -d -1 -p message -e 32 -c 2 -a 0 -i 9 -k RTR 
- -t 0.421784672 -s 10 -d -1 -p message -e 32 -c 2 -a 0 -i 9 -k RTR
h -t 0.421784672 -s 10 -d -1 -p message -e 32 -c 2 -a 0 -i 9 -k RTR
r -t 0.425514902 -s 15 -d -1 -p message -e 32 -c 2 -a 0 -i 9 -k RTR
r -t 0.425514910 -s 14 -d -1 -p message -e 32 -c 2 -a 0 -i 9 -k RTR
r -t 0.425514925 -s 11 -d -1 -p message -e 32 -c 2 -a 0 -i 9 -k RTR
r -t 0.425514943 -s 26 -d -1 -p message -e 32 -c 2 -a 0 -i 9 -k RTR
r -t 0.425514969 -s 24 -d -1 -p message -e 32 -c 2 -a 0 -i 9 -k RTR
r -t 0.425515014 -s 13 -d -1 -p message -e 32 -c 2 -a 0 -i 9 -k RTR
r -t 0.425515193 -s 21 -d -1 -p message -e 32 -c 2 -a 0 -i 9 -k RTR
r -t 0.425515262 -s 0 -d -1 -p message -e 32 -c 2 -a 0 -i 9 -k RTR
r -t 0.425515294 -s 17 -d -1 -p message -e 32 -c 2 -a 0 -i 9 -k RTR
r -t 0.425515298 -s 30 -d -1 -p message -e 32 -c 2 -a 0 -i 9 -k RTR
r -t 0.425515349 -s 20 -d -1 -p message -e 32 -c 2 -a 0 -i 9 -k RTR
r -t 0.425515363 -s 31 -d -1 -p message -e 32 -c 2 -a 0 -i 9 -k RTR
r -t 0.425515430 -s 18 -d -1 -p message -e 32 -c 2 -a 0 -i 9 -k RTR
r -t 0.425515440 -s 7 -d -1 -p message -e 32 -c 2 -a 0 -i 9 -k RTR
r -t 0.425515473 -s 22 -d -1 -p message -e 32 -c 2 -a 0 -i 9 -k RTR
+ -t 0.429968552 -s 17 -d -1 -p message -e 32 -c 2 -a 0 -i 10 -k RTR 
- -t 0.429968552 -s 17 -d -1 -p message -e 32 -c 2 -a 0 -i 10 -k RTR
h -t 0.429968552 -s 17 -d -1 -p message -e 32 -c 2 -a 0 -i 10 -k RTR
r -t 0.434019089 -s 11 -d -1 -p message -e 32 -c 2 -a 0 -i 10 -k RTR
r -t 0.434019148 -s 24 -d -1 -p message -e 32 -c 2 -a 0 -i 10 -k RTR
r -t 0.434019173 -s 30 -d -1 -p message -e 32 -c 2 -a 0 -i 10 -k RTR
r -t 0.434019174 -s 10 -d -1 -p message -e 32 -c 2 -a 0 -i 10 -k RTR
r -t 0.434019186 -s 22 -d -1 -p message -e 32 -c 2 -a 0 -i 10 -k RTR
r -t 0.434019243 -s 15 -d -1 -p message -e 32 -c 2 -a 0 -i 10 -k RTR
r -t 0.434019277 -s 36 -d -1 -p message -e 32 -c 2 -a 0 -i 10 -k RTR
r -t 0.434019368 -s 18 -d -1 -p message -e 32 -c 2 -a 0 -i 10 -k RTR
+ -t 0.454435365 -s 34 -d -1 -p message -e 32 -c 2 -a 0 -i 11 -k RTR 
- -t 0.454435365 -s 34 -d -1 -p message -e 32 -c 2 -a 0 -i 11 -k RTR
h -t 0.454435365 -s 34 -d -1 -p message -e 32 -c 2 -a 0 -i 11 -k RTR
r -t 0.458165576 -s 29 -d -1 -p message -e 32 -c 2 -a 0 -i 11 -k RTR
r -t 0.458165700 -s 36 -d -1 -p message -e 32 -c 2 -a 0 -i 11 -k RTR
r -t 0.458165830 -s 22 -d -1 -p message -e 32 -c 2 -a 0 -i 11 -k RTR
r -t 0.458165873 -s 6 -d -1 -p message -e 32 -c 2 -a 0 -i 11 -k RTR
r -t 0.458165935 -s 28 -d -1 -p message -e 32 -c 2 -a 0 -i 11 -k RTR
r -t 0.458166035 -s 32 -d -1 -p message -e 32 -c 2 -a 0 -i 11 -k RTR
r -t 0.458166035 -s 30 -d -1 -p message -e 32 -c 2 -a 0 -i 11 -k RTR
r -t 0.458166065 -s 18 -d -1 -p message -e 32 -c 2 -a 0 -i 11 -k RTR
r -t 0.458166067 -s 23 -d -1 -p message -e 32 -c 2 -a 0 -i 11 -k RTR
r -t 0.458166088 -s 5 -d -1 -p message -e 32 -c 2 -a 0 -i 11 -k RTR
r -t 0.458166091 -s 9 -d -1 -p message -e 32 -c 2 -a 0 -i 11 -k RTR
r -t 0.458166163 -s 19 -d -1 -p message -e 32 -c 2 -a 0 -i 11 -k RTR
+ -t 0.474672686 -s 27 -d -1 -p message -e 32 -c 2 -a 0 -i 12 -k RTR 
- -t 0.474672686 -s 27 -d -1 -p message -e 32 -c 2 -a 0 -i 12 -k RTR
h -t 0.474672686 -s 27 -d -1 -p message -e 32 -c 2 -a 0 -i 12 -k RTR
r -t 0.477122741 -s 37 -d -1 -p message -e 32 -c 2 -a 0 -i 12 -k RTR
r -t 0.477122855 -s 16 -d -1 -p message -e 32 -c 2 -a 0 -i 12 -k RTR
r -t 0.477123012 -s 8 -d -1 -p message -e 32 -c 2 -a 0 -i 12 -k RTR
r -t 0.477123070 -s 1 -d -1 -p message -e 32 -c 2 -a 0 -i 12 -k RTR
r -t 0.477123074 -s 9 -d -1 -p message -e 32 -c 2 -a 0 -i 12 -k RTR
r -t 0.477123077 -s 5 -d -1 -p message -e 32 -c 2 -a 0 -i 12 -k RTR
r -t 0.477123077 -s 2 -d -1 -p message -e 32 -c 2 -a 0 -i 12 -k RTR
r -t 0.477123090 -s 19 -d -1 -p message -e 32 -c 2 -a 0 -i 12 -k RTR
r -t 0.477123097 -s 4 -d -1 -p message -e 32 -c 2 -a 0 -i 12 -k RTR
r -t 0.477123110 -s 12 -d -1 -p message -e 32 -c 2 -a 0 -i 12 -k RTR
r -t 0.477123170 -s 32 -d -1 -p message -e 32 -c 2 -a 0 -i 12 -k RTR
r -t 0.477123232 -s 38 -d -1 -p message -e 32 -c 2 -a 0 -i 12 -k RTR
r -t 0.477123275 -s 23 -d -1 -p message -e 32 -c 2 -a 0 -i 12 -k RTR
r -t 0.477123280 -s 28 -d -1 -p message -e 32 -c 2 -a 0 -i 12 -k RTR
r -t 0.477123286 -s 6 -d -1 -p message -e 32 -c 2 -a 0 -i 12 -k RTR
r -t 0.477123305 -s 25 -d -1 -p message -e 32 -c 2 -a 0 -i 12 -k RTR
r -t 0.477123424 -s 3 -d -1 -p message -e 32 -c 2 -a 0 -i 12 -k RTR
r -t 0.477123491 -s 35 -d -1 -p message -e 32 -c 2 -a 0 -i 12 -k RTR
r -t 0.477123511 -s 18 -d -1 -p message -e 32 -c 2 -a 0 -i 12 -k RTR
+ -t 0.671962519 -s 14 -d -1 -p message -e 32 -c 2 -a 0 -i 13 -k RTR 
- -t 0.671962519 -s 14 -d -1 -p message -e 32 -c 2 -a 0 -i 13 -k RTR
h -t 0.671962519 -s 14 -d -1 -p message -e 32 -c 2 -a 0 -i 13 -k RTR
r -t 0.676652564 -s 26 -d -1 -p message -e 32 -c 2 -a 0 -i 13 -k RTR
r -t 0.676652758 -s 10 -d -1 -p message -e 32 -c 2 -a 0 -i 13 -k RTR
r -t 0.676652778 -s 13 -d -1 -p message -e 32 -c 2 -a 0 -i 13 -k RTR
r -t 0.676652823 -s 15 -d -1 -p message -e 32 -c 2 -a 0 -i 13 -k RTR
r -t 0.676652837 -s 21 -d -1 -p message -e 32 -c 2 -a 0 -i 13 -k RTR
r -t 0.676652944 -s 11 -d -1 -p message -e 32 -c 2 -a 0 -i 13 -k RTR
r -t 0.676652952 -s 24 -d -1 -p message -e 32 -c 2 -a 0 -i 13 -k RTR
r -t 0.676653022 -s 20 -d -1 -p message -e 32 -c 2 -a 0 -i 13 -k RTR
r -t 0.676653028 -s 31 -d -1 -p message -e 32 -c 2 -a 0 -i 13 -k RTR
r -t 0.676653055 -s 7 -d -1 -p message -e 32 -c 2 -a 0 -i 13 -k RTR
r -t 0.676653131 -s 0 -d -1 -p message -e 32 -c 2 -a 0 -i 13 -k RTR
r -t 0.676653206 -s 39 -d -1 -p message -e 32 -c 2 -a 0 -i 13 -k RTR
r -t 0.676653289 -s 30 -d -1 -p message -e 32 -c 2 -a 0 -i 13 -k RTR
+ -t 0.684226311 -s 37 -d -1 -p message -e 32 -c 2 -a 0 -i 14 -k RTR 
- -t 0.684226311 -s 37 -d -1 -p message -e 32 -c 2 -a 0 -i 14 -k RTR
h -t 0.684226311 -s 37 -d -1 -p message -e 32 -c 2 -a 0 -i 14 -k RTR
r -t 0.688276365 -s 27 -d -1 -p message -e 32 -c 2 -a 0 -i 14 -k RTR
r -t 0.688276503 -s 16 -d -1 -p message -e 32 -c 2 -a 0 -i 14 -k RTR
r -t 0.688276582 -s 8 -d -1 -p message -e 32 -c 2 -a 0 -i 14 -k RTR
r -t 0.688276686 -s 1 -d -1 -p message -e 32 -c 2 -a 0 -i 14 -k RTR
r -t 0.688276692 -s 2 -d -1 -p message -e 32 -c 2 -a 0 -i 14 -k RTR
r -t 0.688276696 -s 4 -d -1 -p message -e 32 -c 2 -a 0 -i 14 -k RTR
r -t 0.688276705 -s 12 -d -1 -p message -e 32 -c 2 -a 0 -i 14 -k RTR
r -t 0.688276714 -s 19 -d -1 -p message -e 32 -c 2 -a 0 -i 14 -k RTR
r -t 0.688276719 -s 9 -d -1 -p message -e 32 -c 2 -a 0 -i 14 -k RTR
r -t 0.688276722 -s 5 -d -1 -p message -e 32 -c 2 -a 0 -i 14 -k RTR
r -t 0.688276810 -s 38 -d -1 -p message -e 32 -c 2 -a 0 -i 14 -k RTR
r -t 0.688276835 -s 32 -d -1 -p message -e 32 -c 2 -a 0 -i 14 -k RTR
r -t 0.688276878 -s 25 -d -1 -p message -e 32 -c 2 -a 0 -i 14 -k RTR
r -t 0.688276896 -s 23 -d -1 -p message -e 32 -c 2 -a 0 -i 14 -k RTR
r -t 0.688276936 -s 6 -d -1 -p message -e 32 -c 2 -a 0 -i 14 -k RTR
r -t 0.688276944 -s 28 -d -1 -p message -e 32 -c 2 -a 0 -i 14 -k RTR
r -t 0.688276997 -s 3 -d -1 -p message -e 32 -c 2 -a 0 -i 14 -k RTR
r -t 0.688277072 -s 35 -d -1 -p message -e 32 -c 2 -a 0 -i 14 -k RTR
r -t 0.688277126 -s 18 -d -1 -p message -e 32 -c 2 -a 0 -i 14 -k RTR
+ -t 0.820392893 -s 20 -d -1 -p message -e 32 -c 2 -a 0 -i 15 -k RTR 
- -t 0.820392893 -s 20 -d -1 -p message -e 32 -c 2 -a 0 -i 15 -k RTR
h -t 0.820392893 -s 20 -d -1 -p message -e 32 -c 2 -a 0 -i 15 -k RTR
r -t 0.824122923 -s 31 -d -1 -p message -e 32 -c 2 -a 0 -i 15 -k RTR
r -t 0.824123091 -s 21 -d -1 -p message -e 32 -c 2 -a 0 -i 15 -k RTR
r -t 0.824123122 -s 39 -d -1 -p message -e 32 -c 2 -a 0 -i 15 -k RTR
r -t 0.824123219 -s 7 -d -1 -p message -e 32 -c 2 -a 0 -i 15 -k RTR
r -t 0.824123246 -s 13 -d -1 -p message -e 32 -c 2 -a 0 -i 15 -k RTR
r -t 0.824123351 -s 26 -d -1 -p message -e 32 -c 2 -a 0 -i 15 -k RTR
r -t 0.824123389 -s 35 -d -1 -p message -e 32 -c 2 -a 0 -i 15 -k RTR
r -t 0.824123395 -s 14 -d -1 -p message -e 32 -c 2 -a 0 -i 15 -k RTR
r -t 0.824123414 -s 0 -d -1 -p message -e 32 -c 2 -a 0 -i 15 -k RTR
r -t 0.824123433 -s 15 -d -1 -p message -e 32 -c 2 -a 0 -i 15 -k RTR
r -t 0.824123530 -s 33 -d -1 -p message -e 32 -c 2 -a 0 -i 15 -k RTR
r -t 0.824123541 -s 24 -d -1 -p message -e 32 -c 2 -a 0 -i 15 -k RTR
r -t 0.824123569 -s 10 -d -1 -p message -e 32 -c 2 -a 0 -i 15 -k RTR
r -t 0.824123584 -s 3 -d -1 -p message -e 32 -c 2 -a 0 -i 15 -k RTR
r -t 0.824123590 -s 11 -d -1 -p message -e 32 -c 2 -a 0 -i 15 -k RTR
r -t 0.824123656 -s 25 -d -1 -p message -e 32 -c 2 -a 0 -i 15 -k RTR
r -t 0.824123656 -s 38 -d -1 -p message -e 32 -c 2 -a 0 -i 15 -k RTR
+ -t 0.850035071 -s 19 -d -1 -p message -e 32 -c 2 -a 0 -i 16 -k RTR 
- -t 0.850035071 -s 19 -d -1 -p message -e 32 -c 2 -a 0 -i 16 -k RTR
h -t 0.850035071 -s 19 -d -1 -p message -e 32 -c 2 -a 0 -i 16 -k RTR
r -t 0.854725129 -s 1 -d -1 -p message -e 32 -c 2 -a 0 -i 16 -k RTR
r -t 0.854725135 -s 2 -d -1 -p message -e 32 -c 2 -a 0 -i 16 -k RTR
r -t 0.854725234 -s 9 -d -1 -p message -e 32 -c 2 -a 0 -i 16 -k RTR
r -t 0.854725235 -s 5 -d -1 -p message -e 32 -c 2 -a 0 -i 16 -k RTR
r -t 0.854725256 -s 23 -d -1 -p message -e 32 -c 2 -a 0 -i 16 -k RTR
r -t 0.854725257 -s 4 -d -1 -p message -e 32 -c 2 -a 0 -i 16 -k RTR
r -t 0.854725288 -s 12 -d -1 -p message -e 32 -c 2 -a 0 -i 16 -k RTR
r -t 0.854725328 -s 16 -d -1 -p message -e 32 -c 2 -a 0 -i 16 -k RTR
r -t 0.854725396 -s 6 -d -1 -p message -e 32 -c 2 -a 0 -i 16 -k RTR
r -t 0.854725469 -s 32 -d -1 -p message -e 32 -c 2 -a 0 -i 16 -k RTR
r -t 0.854725474 -s 37 -d -1 -p message -e 32 -c 2 -a 0 -i 16 -k RTR
r -t 0.854725475 -s 27 -d -1 -p message -e 32 -c 2 -a 0 -i 16 -k RTR
r -t 0.854725496 -s 18 -d -1 -p message -e 32 -c 2 -a 0 -i 16 -k RTR
r -t 0.854725530 -s 38 -d -1 -p message -e 32 -c 2 -a 0 -i 16 -k RTR
r -t 0.854725531 -s 28 -d -1 -p message -e 32 -c 2 -a 0 -i 16 -k RTR
r -t 0.854725544 -s 8 -d -1 -p message -e 32 -c 2 -a 0 -i 16 -k RTR
r -t 0.854725647 -s 36 -d -1 -p message -e 32 -c 2 -a 0 -i 16 -k RTR
r -t 0.854725668 -s 22 -d -1 -p message -e 32 -c 2 -a 0 -i 16 -k RTR
r -t 0.854725670 -s 25 -d -1 -p message -e 32 -c 2 -a 0 -i 16 -k RTR
r -t 0.854725683 -s 30 -d -1 -p message -e 32 -c 2 -a 0 -i 16 -k RTR
r -t 0.854725685 -s 0 -d -1 -p message -e 32 -c 2 -a 0 -i 16 -k RTR
r -t 0.854725696 -s 35 -d -1 -p message -e 32 -c 2 -a 0 -i 16 -k RTR
r -t 0.854725740 -s 29 -d -1 -p message -e 32 -c 2 -a 0 -i 16 -k RTR
r -t 0.854725777 -s 3 -d -1 -p message -e 32 -c 2 -a 0 -i 16 -k RTR
r -t 0.854725869 -s 34 -d -1 -p message -e 32 -c 2 -a 0 -i 16 -k RTR
+ -t 0.869383415 -s 18 -d -1 -p message -e 32 -c 2 -a 0 -i 17 -k RTR 
- -t 0.869383415 -s 18 -d -1 -p message -e 32 -c 2 -a 0 -i 17 -k RTR
h -t 0.869383415 -s 18 -d -1 -p message -e 32 -c 2 -a 0 -i 17 -k RTR
r -t 0.872793611 -s 30 -d -1 -p message -e 32 -c 2 -a 0 -i 17 -k RTR
r -t 0.872793659 -s 23 -d -1 -p message -e 32 -c 2 -a 0 -i 17 -k RTR
r -t 0.872793699 -s 22 -d -1 -p message -e 32 -c 2 -a 0 -i 17 -k RTR
r -t 0.872793731 -s 0 -d -1 -p message -e 32 -c 2 -a 0 -i 17 -k RTR
r -t 0.872793784 -s 36 -d -1 -p message -e 32 -c 2 -a 0 -i 17 -k RTR
r -t 0.872793840 -s 19 -d -1 -p message -e 32 -c 2 -a 0 -i 17 -k RTR
r -t 0.872793850 -s 2 -d -1 -p message -e 32 -c 2 -a 0 -i 17 -k RTR
r -t 0.872793856 -s 1 -d -1 -p message -e 32 -c 2 -a 0 -i 17 -k RTR
r -t 0.872793876 -s 4 -d -1 -p message -e 32 -c 2 -a 0 -i 17 -k RTR
r -t 0.872793877 -s 24 -d -1 -p message -e 32 -c 2 -a 0 -i 17 -k RTR
r -t 0.872793887 -s 12 -d -1 -p message -e 32 -c 2 -a 0 -i 17 -k RTR
r -t 0.872793912 -s 6 -d -1 -p message -e 32 -c 2 -a 0 -i 17 -k RTR
r -t 0.872793930 -s 11 -d -1 -p message -e 32 -c 2 -a 0 -i 17 -k RTR
r -t 0.872793939 -s 5 -d -1 -p message -e 32 -c 2 -a 0 -i 17 -k RTR
r -t 0.872793940 -s 9 -d -1 -p message -e 32 -c 2 -a 0 -i 17 -k RTR
r -t 0.872793976 -s 15 -d -1 -p message -e 32 -c 2 -a 0 -i 17 -k RTR
r -t 0.872794021 -s 35 -d -1 -p message -e 32 -c 2 -a 0 -i 17 -k RTR
r -t 0.872794040 -s 38 -d -1 -p message -e 32 -c 2 -a 0 -i 17 -k RTR
r -t 0.872794059 -s 13 -d -1 -p message -e 32 -c 2 -a 0 -i 17 -k RTR
r -t 0.872794097 -s 16 -d -1 -p message -e 32 -c 2 -a 0 -i 17 -k RTR
r -t 0.872794104 -s 29 -d -1 -p message -e 32 -c 2 -a 0 -i 17 -k RTR
r -t 0.872794115 -s 34 -d -1 -p message -e 32 -c 2 -a 0 -i 17 -k RTR
r -t 0.872794121 -s 32 -d -1 -p message -e 32 -c 2 -a 0 -i 17 -k RTR
r -t 0.872794121 -s 28 -d -1 -p message -e 32 -c 2 -a 0 -i 17 -k RTR
r -t 0.872794174 -s 10 -d -1 -p message -e 32 -c 2 -a 0 -i 17 -k RTR
r -t 0.872794178 -s 25 -d -1 -p message -e 32 -c 2 -a 0 -i 17 -k RTR
r -t 0.872794214 -s 8 -d -1 -p message -e 32 -c 2 -a 0 -i 17 -k RTR
r -t 0.872794231 -s 37 -d -1 -p message -e 32 -c 2 -a 0 -i 17 -k RTR
r -t 0.872794232 -s 17 -d -1 -p message -e 32 -c 2 -a 0 -i 17 -k RTR
r -t 0.872794239 -s 3 -d -1 -p message -e 32 -c 2 -a 0 -i 17 -k RTR
r -t 0.872794240 -s 27 -d -1 -p message -e 32 -c 2 -a 0 -i 17 -k RTR
+ -t 0.875205073 -s 13 -d -1 -p message -e 32 -c 2 -a 0 -i 18 -k RTR 
- -t 0.875205073 -s 13 -d -1 -p message -e 32 -c 2 -a 0 -i 18 -k RTR
h -t 0.875205073 -s 13 -d -1 -p message -e 32 -c 2 -a 0 -i 18 -k RTR
r -t 0.877975263 -s 15 -d -1 -p message -e 32 -c 2 -a 0 -i 18 -k RTR
r -t 0.877975302 -s 26 -d -1 -p message -e 32 -c 2 -a 0 -i 18 -k RTR
r -t 0.877975330 -s 21 -d -1 -p message -e 32 -c 2 -a 0 -i 18 -k RTR
r -t 0.877975331 -s 14 -d -1 -p message -e 32 -c 2 -a 0 -i 18 -k RTR
r -t 0.877975386 -s 24 -d -1 -p message -e 32 -c 2 -a 0 -i 18 -k RTR
r -t 0.877975414 -s 10 -d -1 -p message -e 32 -c 2 -a 0 -i 18 -k RTR
r -t 0.877975424 -s 11 -d -1 -p message -e 32 -c 2 -a 0 -i 18 -k RTR
r -t 0.877975426 -s 20 -d -1 -p message -e 32 -c 2 -a 0 -i 18 -k RTR
r -t 0.877975438 -s 0 -d -1 -p message -e 32 -c 2 -a 0 -i 18 -k RTR
r -t 0.877975446 -s 31 -d -1 -p message -e 32 -c 2 -a 0 -i 18 -k RTR
r -t 0.877975617 -s 7 -d -1 -p message -e 32 -c 2 -a 0 -i 18 -k RTR
r -t 0.877975651 -s 39 -d -1 -p message -e 32 -c 2 -a 0 -i 18 -k RTR
r -t 0.877975673 -s 30 -d -1 -p message -e 32 -c 2 -a 0 -i 18 -k RTR
r -t 0.877975691 -s 35 -d -1 -p message -e 32 -c 2 -a 0 -i 18 -k RTR
r -t 0.877975717 -s 18 -d -1 -p message -e 32 -c 2 -a 0 -i 18 -k RTR
r -t 0.877975878 -s 22 -d -1 -p message -e 32 -c 2 -a 0 -i 18 -k RTR
+ -t 0.884601285 -s 12 -d -1 -p message -e 32 -c 2 -a 0 -i 19 -k RTR 
- -t 0.884601285 -s 12 -d -1 -p message -e 32 -c 2 -a 0 -i 19 -k RTR
h -t 0.884601285 -s 12 -d -1 -p message -e 32 -c 2 -a 0 -i 19 -k RTR
r -t 0.888971316 -s 4 -d -1 -p message -e 32 -c 2 -a 0 -i 19 -k RTR
r -t 0.888971439 -s 2 -d -1 -p message -e 32 -c 2 -a 0 -i 19 -k RTR