n -t * -s 0  -x 287 -y 604 -Z 0 -z 20  -v circle -c black
n -t * -s 1  -x 964 -y 769 -Z 0 -z 20  -v circle -c black
n -t * -s 2  -x 724 -y 351 -Z 0 -z 20  -v circle -c black
n -t * -s 3  -x 283 -y 485 -Z 0 -z 20  -v circle -c black
n -t * -s 4  -x 267 -y 106 -Z 0 -z 20  -v circle -c black
n -t * -s 5  -x 794 -y 197 -Z 0 -z 20  -v circle -c black
n -t * -s 6  -x 19 -y 535 -Z 0 -z 20  -v circle -c black
n -t * -s 7  -x 857 -y 654 -Z 0 -z 20  -v circle -c black
n -t * -s 8  -x 901 -y 528 -Z 0 -z 20  -v circle -c black
n -t * -s 9  -x 793 -y 737 -Z 0 -z 20  -v circle -c black
n -t * -s 10  -x 98 -y 980 -Z 0 -z 20  -v circle -c black
n -t * -s 11  -x 651 -y 553 -Z 0 -z 20  -v circle -c black
n -t * -s 12  -x 785 -y 527 -Z 0 -z 20  -v circle -c black
n -t * -s 13  -x 768 -y 717 -Z 0 -z 20  -v circle -c black
n -t * -s 14  -x 201 -y 457 -Z 0 -z 20  -v circle -c black
n -t * -s 15  -x 282 -y 156 -Z 0 -z 20  -v circle -c black
n -t * -s 16  -x 899 -y 1000 -Z 0 -z 20  -v circle -c black
n -t * -s 17  -x 383 -y 701 -Z 0 -z 20  -v circle -c black
n -t * -s 18  -x 299 -y 114 -Z 0 -z 20  -v circle -c black
n -t * -s 19  -x 962 -y 16 -Z 0 -z 20  -v circle -c black
n -t * -s 20  -x 479 -y 95 -Z 0 -z 20  -v circle -c black
n -t * -s 21  -x 552 -y 83 -Z 0 -z 20  -v circle -c black
n -t * -s 22  -x 143 -y 939 -Z 0 -z 20  -v circle -c black
n -t * -s 23  -x 66 -y 404 -Z 0 -z 20  -v circle -c black
n -t * -s 24  -x 300 -y 189 -Z 0 -z 20  -v circle -c black
n -t * -s 25  -x 88 -y 115 -Z 0 -z 20  -v circle -c black
n -t * -s 26  -x 80 -y 472 -Z 0 -z 20  -v circle -c black
n -t * -s 27  -x 484 -y 295 -Z 0 -z 20  -v circle -c black
n -t * -s 28  -x 191 -y 38 -Z 0 -z 20  -v circle -c black
n -t * -s 29  -x 935 -y 589 -Z 0 -z 20  -v circle -c black
n -t * -s 30  -x 549 -y 940 -Z 0 -z 20  -v circle -c black
n -t * -s 31  -x 983 -y 29 -Z 0 -z 20  -v circle -c black
n -t * -s 32  -x 16 -y 527 -Z 0 -z 20  -v circle -c black
n -t * -s 33  -x 870 -y 948 -Z 0 -z 20  -v circle -c black
n -t * -s 34  -x 796 -y 807 -Z 0 -z 20  -v circle -c black
n -t * -s 35  -x 943 -y 512 -Z 0 -z 20  -v circle -c black
n -t * -s 36  -x 495 -y 964 -Z 0 -z 20  -v circle -c black
n -t * -s 37  -x 815 -y 263 -Z 0 -z 20  -v circle -c black
n -t * -s 38  -x 876 -y 825 -Z 0 -z 20  -v circle -c black
n -t * -s 39  -x 937 -y 863 -Z 0 -z 20  -v circle -c black
V -t * -v 1.0a5 -a 0
W -t * -x 1000 -y 1000
A -t * -n 1 -p 0 -o 0x7fffffff -c 30 -a 1
A -t * -h 1 -m 1073741823 -s 0
+ -t 0.036328457 -s 11 -d -1 -p message -e 32 -c 2 -a 0 -i 0 -k RTR 
- -t 0.036328457 -s 11 -d -1 -p message -e 32 -c 2 -a 0 -i 0 -k RTR
h -t 0.036328457 -s 11 -d -1 -p message -e 32 -c 2 -a 0 -i 0 -k RTR
r -t 0.038778912 -s 12 -d -1 -p message -e 32 -c 2 -a 0 -i 0 -k RTR
r -t 0.038779129 -s 13 -d -1 -p message -e 32 -c 2 -a 0 -i 0 -k RTR
r -t 0.038779173 -s 2 -d -1 -p message -e 32 -c 2 -a 0 -i 0 -k RTR
r -t 0.038779222 -s 7 -d -1 -p message -e 32 -c 2 -a 0 -i 0 -k RTR
r -t 0.038779232 -s 9 -d -1 -p message -e 32 -c 2 -a 0 -i 0 -k RTR
+ -t 0.073282045 -s 4 -d -1 -p message -e 32 -c 2 -a 0 -i 1 -k RTR 
- -t 0.073282045 -s 4 -d -1 -p message -e 32 -c 2 -a 0 -i 1 -k RTR
h -t 0.073282045 -s 4 -d -1 -p message -e 32 -c 2 -a 0 -i 1 -k RTR
r -t 0.076692155 -s 18 -d -1 -p message -e 32 -c 2 -a 0 -i 1 -k RTR
r -t 0.076692219 -s 15 -d -1 -p message -e 32 -c 2 -a 0 -i 1 -k RTR
r -t 0.076692343 -s 24 -d -1 -p message -e 32 -c 2 -a 0 -i 1 -k RTR
r -t 0.076692385 -s 28 -d -1 -p message -e 32 -c 2 -a 0 -i 1 -k RTR
r -t 0.076692642 -s 25 -d -1 -p message -e 32 -c 2 -a 0 -i 1 -k RTR
r -t 0.076692753 -s 20 -d -1 -p message -e 32 -c 2 -a 0 -i 1 -k RTR
+ -t 0.088584275 -s 31 -d -1 -p message -e 32 -c 2 -a 0 -i 2 -k RTR 
- -t 0.088584275 -s 31 -d -1 -p message -e 32 -c 2 -a 0 -i 2 -k RTR
h -t 0.088584275 -s 31 -d -1 -p message -e 32 -c 2 -a 0 -i 2 -k RTR
r -t 0.092634357 -s 19 -d -1 -p message -e 32 -c 2 -a 0 -i 2 -k RTR
+ -t 0.126846076 -s 36 -d -1 -p message -e 32 -c 2 -a 0 -i 3 -k RTR 
- -t 0.126846076 -s 36 -d -1 -p message -e 32 -c 2 -a 0 -i 3 -k RTR
h -t 0.126846076 -s 36 -d -1 -p message -e 32 -c 2 -a 0 -i 3 -k RTR
+ -t 0.129642904 -s 28 -d -1 -p message -e 32 -c 2 -a 0 -i 4 -k RTR 
- -t 0.129642904 -s 28 -d -1 -p message -e 32 -c 2 -a 0 -i 4 -k RTR
h -t 0.129642904 -s 28 -d -1 -p message -e 32 -c 2 -a 0 -i 4 -k RTR
r -t 0.130896273 -s 30 -d -1 -p message -e 32 -c 2 -a 0 -i 3 -k RTR
r -t 0.133373244 -s 4 -d -1 -p message -e 32 -c 2 -a 0 -i 4 -k RTR
r -t 0.133373333 -s 25 -d -1 -p message -e 32 -c 2 -a 0 -i 4 -k RTR
r -t 0.133373344 -s 18 -d -1 -p message -e 32 -c 2 -a 0 -i 4 -k RTR
r -t 0.133373401 -s 15 -d -1 -p message -e 32 -c 2 -a 0 -i 4 -k RTR
r -t 0.133373525 -s 24 -d -1 -p message -e 32 -c 2 -a 0 -i 4 -k RTR
+ -t 0.247164037 -s 15 -d -1 -p message -e 32 -c 2 -a 0 -i 5 -k RTR 
- -t 0.247164037 -s 15 -d -1 -p message -e 32 -c 2 -a 0 -i 5 -k RTR
h -t 0.247164037 -s 15 -d -1 -p message -e 32 -c 2 -a 0 -i 5 -k RTR
r -t 0.250574162 -s 24 -d -1 -p message -e 32 -c 2 -a 0 -i 5 -k RTR
r -t 0.250574188 -s 18 -d -1 -p message -e 32 -c 2 -a 0 -i 5 -k RTR
r -t 0.250574211 -s 4 -d -1 -p message -e 32 -c 2 -a 0 -i 5 -k RTR
r -t 0.250574533 -s 28 -d -1 -p message -e 32 -c 2 -a 0 -i 5 -k RTR
r -t 0.250574698 -s 25 -d -1 -p message -e 32 -c 2 -a 0 -i 5 -k RTR
r -t 0.250574724 -s 20 -d -1 -p message -e 32 -c 2 -a 0 -i 5 -k RTR
r -t 0.250574854 -s 27 -d -1 -p message -e 32 -c 2 -a 0 -i 5 -k RTR
+ -t 0.321822596 -s 26 -d -1 -p message -e 32 -c 2 -a 0 -i 6 -k RTR 
- -t 0.321822596 -s 26 -d -1 -p message -e 32 -c 2 -a 0 -i 6 -k RTR
h -t 0.321822596 -s 26 -d -1 -p message -e 32 -c 2 -a 0 -i 6 -k RTR
r -t 0.324272828 -s 23 -d -1 -p message -e 32 -c 2 -a 0 -i 6 -k RTR
r -t 0.324272878 -s 32 -d -1 -p message -e 32 -c 2 -a 0 -i 6 -k RTR
r -t 0.324272889 -s 6 -d -1 -p message -e 32 -c 2 -a 0 -i 6 -k RTR
r -t 0.324273003 -s 14 -d -1 -p message -e 32 -c 2 -a 0 -i 6 -k RTR
r -t 0.324273274 -s 3 -d -1 -p message -e 32 -c 2 -a 0 -i 6 -k RTR
r -t 0.324273415 -s 0 -d -1 -p message -e 32 -c 2 -a 0 -i 6 -k RTR
+ -t 0.349191800 -s 3 -d -1 -p message -e 32 -c 2 -a 0 -i 7 -k RTR 
- -t 0.349191800 -s 3 -d -1 -p message -e 32 -c 2 -a 0 -i 7 -k RTR
h -t 0.349191800 -s 3 -d -1 -p message -e 32 -c 2 -a 0 -i 7 -k RTR
r -t 0.352922089 -s 14 -d -1 -p message -e 32 -c 2 -a 0 -i 7 -k RTR
r -t 0.352922197 -s 0 -d -1 -p message -e 32 -c 2 -a 0 -i 7 -k RTR
r -t 0.352922478 -s 26 -d -1 -p message -e 32 -c 2 -a 0 -i 7 -k RTR
r -t 0.352922572 -s 23 -d -1 -p message -e 32 -c 2 -a 0 -i 7 -k RTR
r -t 0.352922594 -s 17 -d -1 -p message -e 32 -c 2 -a 0 -i 7 -k RTR
+ -t 0.356017125 -s 29 -d -1 -p message -e 32 -c 2 -a 0 -i 8 -k RTR 
- -t 0.356017125 -s 29 -d -1 -p message -e 32 -c 2 -a 0 -i 8 -k RTR
h -t 0.356017125 -s 29 -d -1 -p message -e 32 -c 2 -a 0 -i 8 -k RTR
r -t 0.359427358 -s 8 -d -1 -p message -e 32 -c 2 -a 0 -i 8 -k RTR
r -t 0.359427383 -s 35 -d -1 -p message -e 32 -c 2 -a 0 -i 8 -k RTR
r -t 0.359427463 -s 7 -d -1 -p message -e 32 -c 2 -a 0 -i 8 -k RTR
r -t 0.359427666 -s 12 -d -1 -p message -e 32 -c 2 -a 0 -i 8 -k RTR
r -t 0.359427733 -s 1 -d -1 -p message -e 32 -c 2 -a 0 -i 8 -k RTR
r -t 0.359427809 -s 9 -d -1 -p message -e 32 -c 2 -a 0 -i 8 -k RTR
r -t 0.359427826 -s 13 -d -1 -p message -e 32 -c 2 -a 0 -i 8 -k RTR
r -t 0.359427936 -s 38 -d -1 -p message -e 32 -c 2 -a 0 -i 8 -k RTR
+ -t 0.421784672 -s 10 -d -1 -p message -e 32 -c 2 -a 0 -i 9 -k RTR 
- -t 0.421784672 -s 10 -d -1 -p message -e 32 -c 2 -a 0 -i 9 -k RTR
h -t 0.421784672 -s 10 -d -1 -p message -e 32 -c 2 -a 0 -i 9 -k RTR
r -t 0.425514875 -s 22 -d -1 -p message -e 32 -c 2 -a 0 -i 9 -k RTR
+ -t 0.429968552 -s 17 -d -1 -p message -e 32 -c 2 -a 0 -i 10 -k RTR 
- -t 0.429968552 -s 17 -d -1 -p message -e 32 -c 2 -a 0 -i 10 -k RTR
h -t 0.429968552 -s 17 -d -1 -p message -e 32 -c 2 -a 0 -i 10 -k RTR
r -t 0.434019007 -s 0 -d -1 -p message -e 32 -c 2 -a 0 -i 10 -k RTR
r -t 0.434019345 -s 3 -d -1 -p message -e 32 -c 2 -a 0 -i 10 -k RTR
+ -t 0.454435365 -s 34 -d -1 -p message -e 32 -c 2 -a 0 -i 11 -k RTR 
- -t 0.454435365 -s 34 -d -1 -p message -e 32 -c 2 -a 0 -i 11 -k RTR
h -t 0.454435365 -s 34 -d -1 -p message -e 32 -c 2 -a 0 -i 11 -k RTR
r -t 0.458165599 -s 9 -d -1 -p message -e 32 -c 2 -a 0 -i 11 -k RTR
r -t 0.458165639 -s 38 -d -1 -p message -e 32 -c 2 -a 0 -i 11 -k RTR
r -t 0.458165679 -s 13 -d -1 -p message -e 32 -c 2 -a 0 -i 11 -k RTR
r -t 0.458165871 -s 39 -d -1 -p message -e 32 -c 2 -a 0 -i 11 -k RTR
r -t 0.458165896 -s 33 -d -1 -p message -e 32 -c 2 -a 0 -i 11 -k RTR
r -t 0.458165914 -s 7 -d -1 -p message -e 32 -c 2 -a 0 -i 11 -k RTR
r -t 0.458165939 -s 1 -d -1 -p message -e 32 -c 2 -a 0 -i 11 -k RTR
r -t 0.458166094 -s 16 -d -1 -p message -e 32 -c 2 -a 0 -i 11 -k RTR
+ -t 0.474672686 -s 27 -d -1 -p message -e 32 -c 2 -a 0 -i 12 -k RTR 
- -t 0.474672686 -s 27 -d -1 -p message -e 32 -c 2 -a 0 -i 12 -k RTR
h -t 0.474672686 -s 27 -d -1 -p message -e 32 -c 2 -a 0 -i 12 -k RTR
r -t 0.477123353 -s 20 -d -1 -p message -e 32 -c 2 -a 0 -i 12 -k RTR
r -t 0.477123394 -s 24 -d -1 -p message -e 32 -c 2 -a 0 -i 12 -k RTR
r -t 0.477123428 -s 21 -d -1 -p message -e 32 -c 2 -a 0 -i 12 -k RTR
r -t 0.477123504 -s 15 -d -1 -p message -e 32 -c 2 -a 0 -i 12 -k RTR
r -t 0.477123508 -s 2 -d -1 -p message -e 32 -c 2 -a 0 -i 12 -k RTR
+ -t 0.671962519 -s 14 -d -1 -p message -e 32 -c 2 -a 0 -i 13 -k RTR 
- -t 0.671962519 -s 14 -d -1 -p message -e 32 -c 2 -a 0 -i 13 -k RTR
h -t 0.671962519 -s 14 -d -1 -p message -e 32 -c 2 -a 0 -i 13 -k RTR
r -t 0.676652808 -s 3 -d -1 -p message -e 32 -c 2 -a 0 -i 13 -k RTR
r -t 0.676652926 -s 26 -d -1 -p message -e 32 -c 2 -a 0 -i 13 -k RTR
r -t 0.676653003 -s 23 -d -1 -p message -e 32 -c 2 -a 0 -i 13 -k RTR
r -t 0.676653087 -s 0 -d -1 -p message -e 32 -c 2 -a 0 -i 13 -k RTR
r -t 0.676653179 -s 32 -d -1 -p message -e 32 -c 2 -a 0 -i 13 -k RTR
r -t 0.676653179 -s 6 -d -1 -p message -e 32 -c 2 -a 0 -i 13 -k RTR
+ -t 0.684226311 -s 37 -d -1 -p message -e 32 -c 2 -a 0 -i 14 -k RTR 
- -t 0.684226311 -s 37 -d -1 -p message -e 32 -c 2 -a 0 -i 14 -k RTR
h -t 0.684226311 -s 37 -d -1 -p message -e 32 -c 2 -a 0 -i 14 -k RTR
r -t 0.688276541 -s 5 -d -1 -p message -e 32 -c 2 -a 0 -i 14 -k RTR
r -t 0.688276733 -s 2 -d -1 -p message -e 32 -c 2 -a 0 -i 14 -k RTR
+ -t 0.820392893 -s 20 -d -1 -p message -e 32 -c 2 -a 0 -i 15 -k RTR 
- -t 0.820392893 -s 20 -d -1 -p message -e 32 -c 2 -a 0 -i 15 -k RTR
h -t 0.820392893 -s 20 -d -1 -p message -e 32 -c 2 -a 0 -i 15 -k RTR
r -t 0.824123139 -s 21 -d -1 -p message -e 32 -c 2 -a 0 -i 15 -k RTR
r -t 0.824123496 -s 18 -d -1 -p message -e 32 -c 2 -a 0 -i 15 -k RTR
r -t 0.824123560 -s 27 -d -1 -p message -e 32 -c 2 -a 0 -i 15 -k RTR
r -t 0.824123567 -s 24 -d -1 -p message -e 32 -c 2 -a 0 -i 15 -k RTR
r -t 0.824123580 -s 15 -d -1 -p message -e 32 -c 2 -a 0 -i 15 -k RTR
r -t 0.824123600 -s 4 -d -1 -p message -e 32 -c 2 -a 0 -i 15 -k RTR
+ -t 0.850035071 -s 19 -d -1 -p message -e 32 -c 2 -a 0 -i 16 -k RTR 
- -t 0.850035071 -s 19 -d -1 -p message -e 32 -c 2 -a 0 -i 16 -k RTR
h -t 0.850035071 -s 19 -d -1 -p message -e 32 -c 2 -a 0 -i 16 -k RTR
r -t 0.854725153 -s 31 -d -1 -p message -e 32 -c 2 -a 0 -i 16 -k RTR
r -t 0.854725894 -s 5 -d -1 -p message -e 32 -c 2 -a 0 -i 16 -k RTR
+ -t 0.869383415 -s 18 -d -1 -p message -e 32 -c 2 -a 0 -i 17 -k RTR 
- -t 0.869383415 -s 18 -d -1 -p message -e 32 -c 2 -a 0 -i 17 -k RTR
h -t 0.869383415 -s 18 -d -1 -p message -e 32 -c 2 -a 0 -i 17 -k RTR
r -t 0.872793525 -s 4 -d -1 -p message -e 32 -c 2 -a 0 -i 17 -k RTR
r -t 0.872793566 -s 15 -d -1 -p message -e 32 -c 2 -a 0 -i 17 -k RTR
r -t 0.872793665 -s 24 -d -1 -p message -e 32 -c 2 -a 0 -i 17 -k RTR
r -t 0.872793856 -s 28 -d -1 -p message -e 32 -c 2 -a 0 -i 17 -k RTR
r -t 0.872794019 -s 20 -d -1 -p message -e 32 -c 2 -a 0 -i 17 -k RTR
r -t 0.872794119 -s 25 -d -1 -p message -e 32 -c 2 -a 0 -i 17 -k RTR
+ -t 0.875205073 -s 13 -d -1 -p message -e 32 -c 2 -a 0 -i 18 -k RTR 
- -t 0.875205073 -s 13 -d -1 -p message -e 32 -c 2 -a 0 -i 18 -k RTR
h -t 0.875205073 -s 13 -d -1 -p message -e 32 -c 2 -a 0 -i 18 -k RTR
r -t 0.877975179 -s 9 -d -1 -p message -e 32 -c 2 -a 0 -i 18 -k RTR
r -t 0.877975387 -s 34 -d -1 -p message -e 32 -c 2 -a 0 -i 18 -k RTR
r -t 0.877975436 -s 7 -d -1 -p message -e 32 -c 2 -a 0 -i 18 -k RTR
r -t 0.877975582 -s 38 -d -1 -p message -e 32 -c 2 -a 0 -i 18 -k RTR
r -t 0.877975709 -s 12 -d -1 -p message -e 32 -c 2 -a 0 -i 18 -k RTR
r -t 0.877975744 -s 11 -d -1 -p message -e 32 -c 2 -a 0 -i 18 -k RTR
r -t 0.877975749 -s 1 -d -1 -p message -e 32 -c 2 -a 0 -i 18 -k RTR
r -t 0.877975774 -s 29 -d -1 -p message -e 32 -c 2 -a 0 -i 18 -k RTR
r -t 0.877975817 -s 39 -d -1 -p message -e 32 -c 2 -a 0 -i 18 -k RTR
r -t 0.877975843 -s 8 -d -1 -p message -e 32 -c 2 -a 0 -i 18 -k RTR
+ -t 0.884601285 -s 12 -d -1 -p message -e 32 -c 2 -a 0 -i 19 -k RTR 
- -t 0.884601285 -s 12 -d -1 -p message -e 32 -c 2 -a 0 -i 19 -k RTR
h -t 0.884601285 -s 12 -d -1 -p message -e 32 -c 2 -a 0 -i 19 -k RTR
r -t 0.888971671 -s 8 -d -1 -p message -e 32 -c 2 -a 0 -i 19 -k RTR
r -t 0.888971740 -s 11 -d -1 -p message -e 32 -c 2 -a 0 -i 19 -k RTR
r -t 0.888971771 -s 7 -d -1 -p message -e 32 -c 2 -a 0 -i 19 -k RTR
r -t 0.888971814 -s 35 -d -1 -p message -e 32 -c 2 -a 0 -i 19 -k RTR
r -t 0.888971826 -s 29 -d -1 -p message -e 32 -c 2 -a 0 -i 19 -k RTR
r -t 0.888971906 -s 2 -d -1 -p message -e 32 -c 2 -a 0 -i 19 -k RTR
r -t 0.888971921 -s 13 -d -1 -p message -e 32 -c 2 -a 0 -i 19 -k RTR
r -t 0.888971985 -s 9 -d -1 -p message -e 32 -c 2 -a 0 -i 19 -k RTR
+ -t 0.902722248 -s 9 -d -1 -p message -e 32 -c 2 -a 0 -i 20 -k RTR 
- -t 0.902722248 -s 9 -d -1 -p message -e 32 -c 2 -a 0 -i 20 -k RTR
h -t 0.902722248 -s 9 -d -1 -p message -e 32 -c 2 -a 0 -i 20 -k RTR
r -t 0.906452355 -s 13 -d -1 -p message -e 32 -c 2 -a 0 -i 20 -k RTR
r -t 0.906452482 -s 34 -d -1 -p message -e 32 -c 2 -a 0 -i 20 -k RTR
r -t 0.906452598 -s 7 -d -1 -p message -e 32 -c 2 -a 0 -i 20 -k RTR
r -t 0.906452652 -s 38 -d -1 -p message -e 32 -c 2 -a 0 -i 20 -k RTR
r -t 0.906452828 -s 1 -d -1 -p message -e 32 -c 2 -a 0 -i 20 -k RTR
r -t 0.906452886 -s 39 -d -1 -p message -e 32 -c 2 -a 0 -i 20 -k RTR
r -t 0.906452932 -s 29 -d -1 -p message -e 32 -c 2 -a 0 -i 20 -k RTR
r -t 0.906452949 -s 12 -d -1 -p message -e 32 -c 2 -a 0 -i 20 -k RTR
r -t 0.906452997 -s 33 -d -1 -p message -e 32 -c 2 -a 0 -i 20 -k RTR
r -t 0.906453023 -s 11 -d -1 -p message -e 32 -c 2 -a 0 -i 20 -k RTR
r -t 0.906453033 -s 8 -d -1 -p message -e 32 -c 2 -a 0 -i 20 -k RTR
+ -t 0.974422618 -s 22 -d -1 -p message -e 32 -c 2 -a 0 -i 21 -k RTR 
- -t 0.974422618 -s 22 -d -1 -p message -e 32 -c 2 -a 0 -i 21 -k RTR
h -t 0.974422618 -s 22 -d -1 -p message -e 32 -c 2 -a 0 -i 21 -k RTR
r -t 0.976872821 -s 10 -d -1 -p message -e 32 -c 2 -a 0 -i 21 -k RTR
n -t 1.000000 -s 0 -x 287.000000 -y 604.000000 -U 3.991796 -V -0.256053 -T 152.312385
n -t 1.000000 -s 1 -x 964.000000 -y 769.000000 -U -0.820606 -V 0.571494 -T 204.726647
n -t 1.000000 -s 2 -x 724.000000 -y 351.000000 -U -1.998910 -V 0.066019 -T 272.648583
n -t 1.000000 -s 3 -x 283.000000 -y 485.000000 -U -0.843588 -V -1.813383 -T 150.547335
n -t 1.000000 -s 4 -x 267.000000 -y 106.000000 -U 0.865651 -V 0.500647 -T 405.475030
n -t 1.000000 -s 5 -x 794.000000 -y 197.000000 -U -1.998717 -V -0.071626 -T 293.188080
n -t 1.000000 -s 6 -x 19.000000 -y 535.000000 -U 3.946232 -V -0.653645 -T 246.310906
n -t 1.000000 -s 7 -x 857.000000 -y 654.000000 -U -1.654114 -V -2.502780 -T 254.516972
n -t 1.000000 -s 8 -x 901.000000 -y 528.000000 -U -2.020079 -V -2.217945 -T 217.318251
n -t 1.000000 -s 9 -x 793.000000 -y 737.000000 -U -1.858833 -V -0.738066 -T 329.238895
n -t 1.000000 -s 10 -x 98.000000 -y 980.000000 -U 1.620059 -V -2.524957 -T 137.032032
n -t 1.000000 -s 11 -x 651.000000 -y 553.000000 -U -4.075355 -V 2.896806 -T 90.789647
n -t 1.000000 -s 12 -x 785.000000 -y 527.000000 -U -0.880925 -V -0.473256 -T 777.591795
n -t 1.000000 -s 13 -x 768.000000 -y 717.000000 -U -1.914054 -V -2.310065 -T 30.302182
n -t 1.000000 -s 14 -x 201.000000 -y 457.000000 -U 1.952622 -V -0.432743 -T 189.488786
n -t 1.000000 -s 15 -x 282.000000 -y 156.000000 -U 0.884005 -V 0.467478 -T 785.063692
n -t 1.000000 -s 16 -x 899.000000 -y 1000.000000 -U -3.474597 -V -1.981710 -T 151.384444
n -t 1.000000 -s 17 -x 383.000000 -y 701.000000 -U 3.605706 -V 1.731728 -T 161.688164
n -t 1.000000 -s 18 -x 299.000000 -y 114.000000 -U 0.573311 -V 1.916067 -T 66.281596
n -t 1.000000 -s 19 -x 962.000000 -y 16.000000 -U 0.162252 -V 4.997367 -T 30.816229
n -t 1.000000 -s 20 -x 479.000000 -y 95.000000 -U -0.382167 -V 0.924093 -T 638.463781
n -t 1.000000 -s 21 -x 552.000000 -y 83.000000 -U 0.346650 -V 0.937994 -T 343.285595
n -t 1.000000 -s 22 -x 143.000000 -y 939.000000 -U -0.045329 -V -0.998972 -T 573.589575
n -t 1.000000 -s 23 -x 66.000000 -y 404.000000 -U -0.816653 -V -3.915747 -T 47.755890
n -t 1.000000 -s 24 -x 300.000000 -y 189.000000 -U -1.466485 -V 3.721481 -T 135.698655
n -t 1.000000 -s 25 -x 88.000000 -y 115.000000 -U 4.710432 -V -1.676853 -T 65.599085
n -t 1.000000 -s 26 -x 80.000000 -y 472.000000 -U 2.944392 -V -0.574940 -T 286.986256
n -t 1.000000 -s 27 -x 484.000000 -y 295.000000 -U 0.998981 -V -0.045141 -T 509.519381
n -t 1.000000 -s 28 -x 191.000000 -y 38.000000 -U 0.620286 -V 3.951613 -T 230.538771
n -t 1.000000 -s 29 -x 935.000000 -y 589.000000 -U -0.523628 -V 1.930237 -T 97.397382
n -t 1.000000 -s 30 -x 549.000000 -y 940.000000 -U 0.173959 -V -3.996216 -T 206.945796
n -t 1.000000 -s 31 -x 983.000000 -y 29.000000 -U -3.293822 -V 2.269524 -T 248.950924
n -t 1.000000 -s 32 -x 16.000000 -y 527.000000 -U 4.747014 -V 1.570305 -T 166.209747
n -t 1.000000 -s 33 -x 870.000000 -y 948.000000 -U -1.752016 -V -0.964593 -T 101.597244
n -t 1.000000 -s 34 -x 796.000000 -y 807.000000 -U -0.868706 -V -0.495328 -T 664.206293
n -t 1.000000 -s 35 -x 943.000000 -y 512.000000 -U -0.961344 -V 0.275352 -T 628.287355
n -t 1.000000 -s 36 -x 495.000000 -y 964.000000 -U 0.647042 -V -2.929392 -T 310.644670
n -t 1.000000 -s 37 -x 815.000000 -y 263.000000 -U -3.590217 -V -1.763616 -T 15.876476
n -t 1.000000 -s 38 -x 876.000000 -y 825.000000 -U -0.873151 -V -0.487450 -T 422.607383
n -t 1.000000 -s 39 -x 937.000000 -y 863.000000 -U -2.823495 -V 1.013842 -T 91.730281
+ -t 1.012825328 -s 13 -d -1 -p tcp -e 40 -c 2 -a 0 -i 22 -k AGT 
- -t 1.012825328 -s 13 -d -1 -p tcp -e 40 -c 2 -a 0 -i 22 -k AGT
h -t 1.012825328 -s 13 -d -1 -p tcp -e 40 -c 2 -a 0 -i 22 -k AGT
+ -t 1.012825328 -s 13 -d 9 -p tcp -e 60 -c 2 -a 0 -i 22 -k RTR 
- -t 1.012825328 -s 13 -d 9 -p tcp -e 60 -c 2 -a 0 -i 22 -k RTR
h -t 1.012825328 -s 13 -d 9 -p tcp -e 60 -c 2 -a 0 -i 22 -k RTR
r -t 1.025953648 -s 9 -d 9 -p tcp -e 60 -c 2 -a 0 -i 22 -k AGT
+ -t 1.025953648 -s 9 -d -1 -p ack -e 40 -c 2 -a 0 -i 23 -k AGT 
- -t 1.025953648 -s 9 -d -1 -p ack -e 40 -c 2 -a 0 -i 23 -k AGT
h -t 1.025953648 -s 9 -d -1 -p ack -e 40 -c 2 -a 0 -i 23 -k AGT
+ -t 1.025953648 -s 9 -d 13 -p ack -e 60 -c 2 -a 0 -i 23 -k RTR 
- -t 1.025953648 -s 9 -d 13 -p ack -e 60 -c 2 -a 0 -i 23 -k RTR
h -t 1.025953648 -s 9 -d 13 -p ack -e 60 -c 2 -a 0 -i 23 -k RTR
r -t 1.029843755 -s 13 -d 13 -p ack -e 60 -c 2 -a 0 -i 23 -k AGT
+ -t 1.029843755 -s 13 -d -1 -p tcp -e 1040 -c 2 -a 0 -i 24 -k AGT 
- -t 1.029843755 -s 13 -d -1 -p tcp -e 1040 -c 2 -a 0 -i 24 -k AGT
h -t 1.029843755 -s 13 -d -1 -p tcp -e 1040 -c 2 -a 0 -i 24 -k AGT
+ -t 1.029843755 -s 13 -d 9 -p tcp -e 1060 -c 2 -a 0 -i 24 -k RTR 
- -t 1.029843755 -s 13 -d 9 -p tcp -e 1060 -c 2 -a 0 -i 24 -k RTR
h -t 1.029843755 -s 13 -d 9 -p tcp -e 1060 -c 2 -a 0 -i 24 -k RTR
r -t 1.034245862 -s 9 -d 9 -p tcp -e 36 -c 2 -a 0 -i 24 -k AGT
+ -t 1.034245862 -s 9 -d -1 -p ack -e 40 -c 2 -a 0 -i 25 -k AGT 
- -t 1.034245862 -s 9 -d -1 -p ack -e 40 -c 2 -a 0 -i 25 -k AGT
h -t 1.034245862 -s 9 -d -1 -p ack -e 40 -c 2 -a 0 -i 25 -k AGT
+ -t 1.034245862 -s 9 -d 13 -p ack -e 60 -c 2 -a 0 -i 25 -k RTR 
- -t 1.034245862 -s 9 -d 13 -p ack -e 60 -c 2 -a 0 -i 25 -k RTR
h -t 1.034245862 -s 9 -d 13 -p ack -e 60 -c 2 -a 0 -i 25 -k RTR
r -t 1.038775969 -s 13 -d 13 -p ack -e 60 -c 2 -a 0 -i 25 -k AGT
+ -t 1.049263177 -s 8 -d -1 -p message -e 32 -c 2 -a 0 -i 26 -k RTR 
- -t 1.049263177 -s 8 -d -1 -p message -e 32 -c 2 -a 0 -i 26 -k RTR
h -t 1.049263177 -s 8 -d -1 -p message -e 32 -c 2 -a 0 -i 26 -k RTR
r -t 1.052673326 -s 35 -d -1 -p message -e 32 -c 2 -a 0 -i 26 -k RTR
r -t 1.052673410 -s 29 -d -1 -p message -e 32 -c 2 -a 0 -i 26 -k RTR
r -t 1.052673563 -s 12 -d -1 -p message -e 32 -c 2 -a 0 -i 26 -k RTR
r -t 1.052673621 -s 7 -d -1 -p message -e 32 -c 2 -a 0 -i 26 -k RTR
r -t 1.052673947 -s 13 -d -1 -p message -e 32 -c 2 -a 0 -i 26 -k RTR
r -t 1.052673961 -s 9 -d -1 -p message -e 32 -c 2 -a 0 -i 26 -k RTR
r -t 1.052674007 -s 1 -d -1 -p message -e 32 -c 2 -a 0 -i 26 -k RTR
+ -t 1.053083472 -s 20 -d -1 -p tcp -e 40 -c 2 -a 0 -i 27 -k AGT 
- -t 1.053083472 -s 20 -d -1 -p tcp -e 40 -c 2 -a 0 -i 27 -k AGT
h -t 1.053083472 -s 20 -d -1 -p tcp -e 40 -c 2 -a 0 -i 27 -k AGT
+ -t 1.107219846 -s 34 -d -1 -p tcp -e 40 -c 2 -a 0 -i 28 -k AGT 
- -t 1.107219846 -s 34 -d -1 -p tcp -e 40 -c 2 -a 0 -i 28 -k AGT
h -t 1.107219846 -s 34 -d -1 -p tcp -e 40 -c 2 -a 0 -i 28 -k AGT
+ -t 1.107219846 -s 34 -d 9 -p tcp -e 60 -c 2 -a 0 -i 28 -k RTR 
- -t 1.107219846 -s 34 -d 9 -p tcp -e 60 -c 2 -a 0 -i 28 -k RTR
h -t 1.107219846 -s 34 -d 9 -p tcp -e 60 -c 2 -a 0 -i 28 -k RTR
r -t 1.121628547 -s 9 -d 9 -p tcp -e 60 -c 2 -a 0 -i 28 -k AGT
+ -t 1.121628547 -s 9 -d -1 -p ack -e 40 -c 2 -a 0 -i 29 -k AGT 
- -t 1.121628547 -s 9 -d -1 -p ack -e 40 -c 2 -a 0 -i 29 -k AGT
h -t 1.121628547 -s 9 -d -1 -p ack -e 40 -c 2 -a 0 -i 29 -k AGT
+ -t 1.121628547 -s 9 -d 34 -p ack -e 60 -c 2 -a 0 -i 29 -k RTR 
- -t 1.121628547 -s 9 -d 34 -p ack -e 60 -c 2 -a 0 -i 29 -k RTR
h -t 1.121628547 -s 9 -d 34 -p ack -e 60 -c 2 -a 0 -i 29 -k RTR
r -t 1.126158780 -s 34 -d 34 -p ack -e 60 -c 2 -a 0 -i 29 -k AGT
+ -t 1.126158780 -s 34 -d -1 -p tcp -e 1040 -c 2 -a 0 -i 30 -k AGT 
- -t 1.126158780 -s 34 -d -1 -p tcp -e 1040 -c 2 -a 0 -i 30 -k AGT
h -t 1.126158780 -s 34 -d -1 -p tcp -e 1040 -c 2 -a 0 -i 30 -k AGT
+ -t 1.126158780 -s 34 -d 9 -p tcp -e 1060 -c 2 -a 0 -i 30 -k RTR 
- -t 1.126158780 -s 34 -d 9 -p tcp -e 1060 -c 2 -a 0 -i 30 -k RTR
h -t 1.126158780 -s 34 -d 9 -p tcp -e 1060 -c 2 -a 0 -i 30 -k RTR
r -t 1.131201014 -s 9 -d 9 -p tcp -e 36 -c 2 -a 0 -i 30 -k AGT
+ -t 1.131201014 -s 9 -d -1 -p ack -e 40 -c 2 -a 0 -i 31 -k AGT 
- -t 1.131201014 -s 9 -d -1 -p ack -e 40 -c 2 -a 0 -i 31 -k AGT
h -t 1.131201014 -s 9 -d -1 -p ack -e 40 -c 2 -a 0 -i 31 -k AGT
+ -t 1.131201014 -s 9 -d 34 -p ack -e 60 -c 2 -a 0 -i 31 -k RTR 
- -t 1.131201014 -s 9 -d 34 -p ack -e 60 -c 2 -a 0 -i 31 -k RTR
h -t 1.131201014 -s 9 -d 34 -p ack -e 60 -c 2 -a 0 -i 31 -k RTR
r -t 1.135731248 -s 34 -d 34 -p ack -e 60 -c 2 -a 0 -i 31 -k AGT
+ -t 1.157653604 -s 32 -d -1 -p message -e 32 -c 2 -a 0 -i 32 -k RTR 
- -t 1.157653604 -s 32 -d -1 -p message -e 32 -c 2 -a 0 -i 32 -k RTR
h -t 1.157653604 -s 32 -d -1 -p message -e 32 -c 2 -a 0 -i 32 -k RTR
r -t 1.162343631 -s 6 -d -1 -p message -e 32 -c 2 -a 0 -i 32 -k RTR
r -t 1.162343885 -s 26 -d -1 -p message -e 32 -c 2 -a 0 -i 32 -k RTR
r -t 1.162344048 -s 23 -d -1 -p message -e 32 -c 2 -a 0 -i 32 -k RTR
r -t 1.162344262 -s 14 -d -1 -p message -e 32 -c 2 -a 0 -i 32 -k RTR
+ -t 1.240586482 -s 6 -d -1 -p message -e 32 -c 2 -a 0 -i 33 -k RTR 
- -t 1.240586482 -s 6 -d -1 -p message -e 32 -c 2 -a 0 -i 33 -k RTR
h -t 1.240586482 -s 6 -d -1 -p message -e 32 -c 2 -a 0 -i 33 -k RTR
r -t 1.243036509 -s 32 -d -1 -p message -e 32 -c 2 -a 0 -i 33 -k RTR
r -t 1.243036774 -s 26 -d -1 -p message -e 32 -c 2 -a 0 -i 33 -k RTR
r -t 1.243036947 -s 23 -d -1 -p message -e 32 -c 2 -a 0 -i 33 -k RTR
r -t 1.243037141 -s 14 -d -1 -p message -e 32 -c 2 -a 0 -i 33 -k RTR
+ -t 1.254386373 -s 24 -d -1 -p message -e 32 -c 2 -a 0 -i 34 -k RTR 
- -t 1.254386373 -s 24 -d -1 -p message -e 32 -c 2 -a 0 -i 34 -k RTR
h -t 1.254386373 -s 24 -d -1 -p message -e 32 -c 2 -a 0 -i 34 -k RTR
r -t 1.259076500 -s 15 -d -1 -p message -e 32 -c 2 -a 0 -i 34 -k RTR
r -t 1.259076625 -s 18 -d -1 -p message -e 32 -c 2 -a 0 -i 34 -k RTR
r -t 1.259076673 -s 4 -d -1 -p message -e 32 -c 2 -a 0 -i 34 -k RTR
r -t 1.259076993 -s 28 -d -1 -p message -e 32 -c 2 -a 0 -i 34 -k RTR
r -t 1.259077049 -s 20 -d -1 -p message -e 32 -c 2 -a 0 -i 34 -k RTR
r -t 1.259077081 -s 27 -d -1 -p message -e 32 -c 2 -a 0 -i 34 -k RTR
r -t 1.259077118 -s 25 -d -1 -p message -e 32 -c 2 -a 0 -i 34 -k RTR
+ -t 1.277448899 -s 39 -d -1 -p message -e 32 -c 2 -a 0 -i 35 -k RTR 
- -t 1.277448899 -s 39 -d -1 -p message -e 32 -c 2 -a 0 -i 35 -k RTR
h -t 1.277448899 -s 39 -d -1 -p message -e 32 -c 2 -a 0 -i 35 -k RTR
r -t 1.280859137 -s 38 -d -1 -p message -e 32 -c 2 -a 0 -i 35 -k RTR
r -t 1.280859225 -s 1 -d -1 -p message -e 32 -c 2 -a 0 -i 35 -k RTR
r -t 1.280859257 -s 33 -d -1 -p message -e 32 -c 2 -a 0 -i 35 -k RTR
r -t 1.280859370 -s 16 -d -1 -p message -e 32 -c 2 -a 0 -i 35 -k RTR
r -t 1.280859403 -s 34 -d -1 -p message -e 32 -c 2 -a 0 -i 35 -k RTR
r -t 1.280859537 -s 9 -d -1 -p message -e 32 -c 2 -a 0 -i 35 -k RTR
r -t 1.280859644 -s 13 -d -1 -p message -e 32 -c 2 -a 0 -i 35 -k RTR
r -t 1.280859647 -s 7 -d -1 -p message -e 32 -c 2 -a 0 -i 35 -k RTR
+ -t 1.371198109 -s 7 -d -1 -p tcp -e 40 -c 2 -a 0 -i 36 -k AGT 
- -t 1.371198109 -s 7 -d -1 -p tcp -e 40 -c 2 -a 0 -i 36 -k AGT
h -t 1.371198109 -s 7 -d -1 -p tcp -e 40 -c 2 -a 0 -i 36 -k AGT
+ -t 1.371198109 -s 7 -d 9 -p tcp -e 60 -c 2 -a 0 -i 36 -k RTR 
- -t 1.371198109 -s 7 -d 9 -p tcp -e 60 -c 2 -a 0 -i 36 -k RTR
h -t 1.371198109 -s 7 -d 9 -p tcp -e 60 -c 2 -a 0 -i 36 -k RTR
r -t 1.383687162 -s 9 -d 9 -p tcp -e 60 -c 2 -a 0 -i 36 -k AGT
+ -t 1.383687162 -s 9 -d -1 -p ack -e 40 -c 2 -a 0 -i 37 -k AGT 
- -t 1.383687162 -s 9 -d -1 -p ack -e 40 -c 2 -a 0 -i 37 -k AGT
h -t 1.383687162 -s 9 -d -1 -p ack -e 40 -c 2 -a 0 -i 37 -k AGT
+ -t 1.415823466 -s 33 -d -1 -p message -e 32 -c 2 -a 0 -i 38 -k RTR 
- -t 1.415823466 -s 33 -d -1 -p message -e 32 -c 2 -a 0 -i 38 -k RTR
h -t 1.415823466 -s 33 -d -1 -p message -e 32 -c 2 -a 0 -i 38 -k RTR
r -t 1.418913662 -s 16 -d -1 -p message -e 32 -c 2 -a 0 -i 38 -k RTR
r -t 1.418913824 -s 39 -d -1 -p message -e 32 -c 2 -a 0 -i 38 -k RTR
r -t 1.418913876 -s 38 -d -1 -p message -e 32 -c 2 -a 0 -i 38 -k RTR
r -t 1.418913996 -s 34 -d -1 -p message -e 32 -c 2 -a 0 -i 38 -k RTR
r -t 1.418914139 -s 1 -d -1 -p message -e 32 -c 2 -a 0 -i 38 -k RTR
r -t 1.418914215 -s 9 -d -1 -p message -e 32 -c 2 -a 0 -i 38 -k RTR
+ -t 1.434610508 -s 8 -d -1 -p tcp -e 40 -c 2 -a 0 -i 39 -k AGT 
- -t 1.434610508 -s 8 -d -1 -p tcp -e 40 -c 2 -a 0 -i 39 -k AGT
h -t 1.434610508 -s 8 -d -1 -p tcp -e 40 -c 2 -a 0 -i 39 -k AGT
+ -t 1.434610508 -s 8 -d 9 -p tcp -e 60 -c 2 -a 0 -i 39 -k RTR 
- -t 1.434610508 -s 8 -d 9 -p tcp -e 60 -c 2 -a 0 -i 39 -k RTR
h -t 1.434610508 -s 8 -d 9 -p tcp -e 60 -c 2 -a 0 -i 39 -k RTR
+ -t 1.442372910 -s 38 -d -1 -p tcp -e 40 -c 2 -a 0 -i 40 -k AGT 
- -t 1.442372910 -s 38 -d -1 -p tcp -e 40 -c 2 -a 0 -i 40 -k AGT
h -t 1.442372910 -s 38 -d -1 -p tcp -e 40 -c 2 -a 0 -i 40 -k AGT
+ -t 1.442372910 -s 38 -d 9 -p tcp -e 60 -c 2 -a 0 -i 40 -k RTR 
- -t 1.442372910 -s 38 -d 9 -p tcp -e 60 -c 2 -a 0 -i 40 -k RTR
h -t 1.442372910 -s 38 -d 9 -p tcp -e 60 -c 2 -a 0 -i 40 -k RTR
r -t 1.454862123 -s 9 -d 9 -p tcp -e 60 -c 2 -a 0 -i 40 -k AGT
+ -t 1.454862123 -s 9 -d -1 -p ack -e 40 -c 2 -a 0 -i 41 -k AGT 
- -t 1.454862123 -s 9 -d -1 -p ack -e 40 -c 2 -a 0 -i 41 -k AGT
h -t 1.454862123 -s 9 -d -1 -p ack -e 40 -c 2 -a 0 -i 41 -k AGT
+ -t 1.459442693 -s 7 -d -1 -p tcp -e 40 -c 2 -a 0 -i 42 -k AGT 
- -t 1.459442693 -s 7 -d -1 -p tcp -e 40 -c 2 -a 0 -i 42 -k AGT
h -t 1.459442693 -s 7 -d -1 -p tcp -e 40 -c 2 -a 0 -i 42 -k AGT
+ -t 1.459442693 -s 7 -d 9 -p tcp -e 60 -c 2 -a 0 -i 42 -k RTR 
- -t 1.459442693 -s 7 -d 9 -p tcp -e 60 -c 2 -a 0 -i 42 -k RTR
h -t 1.459442693 -s 7 -d 9 -p tcp -e 60 -c 2 -a 0 -i 42 -k RTR
+ -t 1.462313712 -s 34 -d -1 -p tcp -e 1040 -c 2 -a 0 -i 43 -k AGT 
- -t 1.462313712 -s 34 -d -1 -p tcp -e 1040 -c 2 -a 0 -i 43 -k AGT
h -t 1.462313712 -s 34 -d -1 -p tcp -e 1040 -c 2 -a 0 -i 43 -k AGT
+ -t 1.462313712 -s 34 -d 9 -p tcp -e 1060 -c 2 -a 0 -i 43 -k RTR 
- -t 1.462313712 -s 34 -d 9 -p tcp -e 1060 -c 2 -a 0 -i 43 -k RTR
h -t 1.462313712 -s 34 -d 9 -p tcp -e 1060 -c 2 -a 0 -i 43 -k RTR
r -t 1.463653044 -s 9 -d 9 -p tcp -e 60 -c 2 -a 0 -i 42 -k AGT
+ -t 1.463653044 -s 9 -d -1 -p ack -e 40 -c 2 -a 0 -i 44 -k AGT 
- -t 1.463653044 -s 9 -d -1 -p ack -e 40 -c 2 -a 0 -i 44 -k AGT
h -t 1.463653044 -s 9 -d -1 -p ack -e 40 -c 2 -a 0 -i 44 -k AGT
r -t 1.467644867 -s 9 -d 9 -p tcp -e 60 -c 2 -a 0 -i 39 -k AGT
+ -t 1.467644867 -s 9 -d -1 -p ack -e 40 -c 2 -a 0 -i 45 -k AGT 
- -t 1.467644867 -s 9 -d -1 -p ack -e 40 -c 2 -a 0 -i 45 -k AGT
h -t 1.467644867 -s 9 -d -1 -p ack -e 40 -c 2 -a 0 -i 45 -k AGT
+ -t 1.467644867 -s 9 -d 8 -p ack -e 60 -c 2 -a 0 -i 45 -k RTR 
- -t 1.467644867 -s 9 -d 8 -p ack -e 60 -c 2 -a 0 -i 45 -k RTR
h -t 1.467644867 -s 9 -d 8 -p ack -e 60 -c 2 -a 0 -i 45 -k RTR
r -t 1.476955946 -s 9 -d 9 -p tcp -e 36 -c 2 -a 0 -i 43 -k AGT
+ -t 1.476955946 -s 9 -d -1 -p ack -e 40 -c 2 -a 0 -i 47 -k AGT 
- -t 1.476955946 -s 9 -d -1 -p ack -e 40 -c 2 -a 0 -i 47 -k AGT
h -t 1.476955946 -s 9 -d -1 -p ack -e 40 -c 2 -a 0 -i 47 -k AGT
+ -t 1.476955946 -s 9 -d 34 -p ack -e 60 -c 2 -a 0 -i 47 -k RTR 
- -t 1.476955946 -s 9 -d 34 -p ack -e 60 -c 2 -a 0 -i 47 -k RTR
h -t 1.476955946 -s 9 -d 34 -p ack -e 60 -c 2 -a 0 -i 47 -k RTR
+ -t 1.477116514 -s 21 -d -1 -p message -e 32 -c 2 -a 0 -i 46 -k RTR 
- -t 1.477116514 -s 21 -d -1 -p message -e 32 -c 2 -a 0 -i 46 -k RTR
h -t 1.477116514 -s 21 -d -1 -p message -e 32 -c 2 -a 0 -i 46 -k RTR
r -t 1.480526762 -s 20 -d -1 -p message -e 32 -c 2 -a 0 -i 46 -k RTR
r -t 1.480527255 -s 27 -d -1 -p message -e 32 -c 2 -a 0 -i 46 -k RTR
r -t 1.481116733 -s 8 -d 8 -p ack -e 60 -c 2 -a 0 -i 45 -k AGT
+ -t 1.481116733 -s 8 -d -1 -p tcp -e 1040 -c 2 -a 0 -i 48 -k AGT 
- -t 1.481116733 -s 8 -d -1 -p tcp -e 1040 -c 2 -a 0 -i 48 -k AGT
h -t 1.481116733 -s 8 -d -1 -p tcp -e 1040 -c 2 -a 0 -i 48 -k AGT
+ -t 1.481116733 -s 8 -d 9 -p tcp -e 1060 -c 2 -a 0 -i 48 -k RTR 
- -t 1.481116733 -s 8 -d 9 -p tcp -e 1060 -c 2 -a 0 -i 48 -k RTR