n -t * -s 0  -x 144 -y 302 -Z 0 -z 20  -v circle -c black
n -t * -s 1  -x 482 -y 385 -Z 0 -z 20  -v circle -c black
n -t * -s 2  -x 362 -y 176 -Z 0 -z 20  -v circle -c black
n -t * -s 3  -x 142 -y 243 -Z 0 -z 20  -v circle -c black
n -t * -s 4  -x 134 -y 53 -Z 0 -z 20  -v circle -c black
n -t * -s 5  -x 397 -y 99 -Z 0 -z 20  -v circle -c black
n -t * -s 6  -x 10 -y 268 -Z 0 -z 20  -v circle -c black
n -t * -s 7  -x 429 -y 327 -Z 0 -z 20  -v circle -c black
n -t * -s 8  -x 451 -y 264 -Z 0 -z 20  -v circle -c black
n -t * -s 9  -x 397 -y 369 -Z 0 -z 20  -v circle -c black
n -t * -s 10  -x 49 -y 490 -Z 0 -z 20  -v circle -c black
n -t * -s 11  -x 326 -y 277 -Z 0 -z 20  -v circle -c black
n -t * -s 12  -x 393 -y 264 -Z 0 -z 20  -v circle -c black
n -t * -s 13  -x 384 -y 359 -Z 0 -z 20  -v circle -c black
n -t * -s 14  -x 101 -y 229 -Z 0 -z 20  -v circle -c black
n -t * -s 15  -x 141 -y 78 -Z 0 -z 20  -v circle -c black
n -t * -s 16  -x 450 -y 500 -Z 0 -z 20  -v circle -c black
n -t * -s 17  -x 192 -y 351 -Z 0 -z 20  -v circle -c black
n -t * -s 18  -x 150 -y 57 -Z 0 -z 20  -v circle -c black
n -t * -s 19  -x 481 -y 8 -Z 0 -z 20  -v circle -c black
n -t * -s 20  -x 240 -y 48 -Z 0 -z 20  -v circle -c black
n -t * -s 21  -x 276 -y 42 -Z 0 -z 20  -v circle -c black
n -t * -s 22  -x 72 -y 470 -Z 0 -z 20  -v circle -c black
n -t * -s 23  -x 33 -y 202 -Z 0 -z 20  -v circle -c black
n -t * -s 24  -x 150 -y 95 -Z 0 -z 20  -v circle -c black
n -t * -s 25  -x 44 -y 58 -Z 0 -z 20  -v circle -c black
n -t * -s 26  -x 40 -y 236 -Z 0 -z 20  -v circle -c black
n -t * -s 27  -x 242 -y 148 -Z 0 -z 20  -v circle -c black
n -t * -s 28  -x 96 -y 19 -Z 0 -z 20  -v circle -c black
n -t * -s 29  -x 468 -y 295 -Z 0 -z 20  -v circle -c black
n -t * -s 30  -x 275 -y 470 -Z 0 -z 20  -v circle -c black
n -t * -s 31  -x 492 -y 15 -Z 0 -z 20  -v circle -c black
n -t * -s 32  -x 8 -y 264 -Z 0 -z 20  -v circle -c black
n -t * -s 33  -x 435 -y 474 -Z 0 -z 20  -v circle -c black
n -t * -s 34  -x 398 -y 404 -Z 0 -z 20  -v circle -c black
n -t * -s 35  -x 472 -y 256 -Z 0 -z 20  -v circle -c black
n -t * -s 36  -x 248 -y 482 -Z 0 -z 20  -v circle -c black
n -t * -s 37  -x 408 -y 132 -Z 0 -z 20  -v circle -c black
n -t * -s 38  -x 438 -y 413 -Z 0 -z 20  -v circle -c black
n -t * -s 39  -x 469 -y 432 -Z 0 -z 20  -v circle -c black
V -t * -v 1.0a5 -a 0
W -t * -x 500 -y 500
A -t * -n 1 -p 0 -o 0x7fffffff -c 30 -a 1
A -t * -h 1 -m 1073741823 -s 0
+ -t 0.036328457 -s 11 -d -1 -p message -e 32 -c 2 -a 0 -i 0 -k RTR 
- -t 0.036328457 -s 11 -d -1 -p message -e 32 -c 2 -a 0 -i 0 -k RTR
h -t 0.036328457 -s 11 -d -1 -p message -e 32 -c 2 -a 0 -i 0 -k RTR
r -t 0.038778685 -s 12 -d -1 -p message -e 32 -c 2 -a 0 -i 0 -k RTR
r -t 0.038778792 -s 13 -d -1 -p message -e 32 -c 2 -a 0 -i 0 -k RTR
r -t 0.038778815 -s 2 -d -1 -p message -e 32 -c 2 -a 0 -i 0 -k RTR
r -t 0.038778839 -s 7 -d -1 -p message -e 32 -c 2 -a 0 -i 0 -k RTR
r -t 0.038778844 -s 9 -d -1 -p message -e 32 -c 2 -a 0 -i 0 -k RTR
r -t 0.038778876 -s 8 -d -1 -p message -e 32 -c 2 -a 0 -i 0 -k RTR
r -t 0.038778934 -s 29 -d -1 -p message -e 32 -c 2 -a 0 -i 0 -k RTR
r -t 0.038778944 -s 34 -d -1 -p message -e 32 -c 2 -a 0 -i 0 -k RTR
r -t 0.038778949 -s 35 -d -1 -p message -e 32 -c 2 -a 0 -i 0 -k RTR
r -t 0.038778967 -s 17 -d -1 -p message -e 32 -c 2 -a 0 -i 0 -k RTR
r -t 0.038778970 -s 27 -d -1 -p message -e 32 -c 2 -a 0 -i 0 -k RTR
r -t 0.038779012 -s 37 -d -1 -p message -e 32 -c 2 -a 0 -i 0 -k RTR
r -t 0.038779044 -s 38 -d -1 -p message -e 32 -c 2 -a 0 -i 0 -k RTR
r -t 0.038779069 -s 0 -d -1 -p message -e 32 -c 2 -a 0 -i 0 -k RTR
r -t 0.038779081 -s 3 -d -1 -p message -e 32 -c 2 -a 0 -i 0 -k RTR
r -t 0.038779090 -s 1 -d -1 -p message -e 32 -c 2 -a 0 -i 0 -k RTR
r -t 0.038779096 -s 5 -d -1 -p message -e 32 -c 2 -a 0 -i 0 -k RTR
r -t 0.038779123 -s 30 -d -1 -p message -e 32 -c 2 -a 0 -i 0 -k RTR
r -t 0.038779160 -s 39 -d -1 -p message -e 32 -c 2 -a 0 -i 0 -k RTR
r -t 0.038779188 -s 36 -d -1 -p message -e 32 -c 2 -a 0 -i 0 -k RTR
r -t 0.038779208 -s 33 -d -1 -p message -e 32 -c 2 -a 0 -i 0 -k RTR
r -t 0.038779224 -s 14 -d -1 -p message -e 32 -c 2 -a 0 -i 0 -k RTR
r -t 0.038779258 -s 21 -d -1 -p message -e 32 -c 2 -a 0 -i 0 -k RTR
r -t 0.038779272 -s 20 -d -1 -p message -e 32 -c 2 -a 0 -i 0 -k RTR
+ -t 0.073282045 -s 4 -d -1 -p message -e 32 -c 2 -a 0 -i 1 -k RTR 
- -t 0.073282045 -s 4 -d -1 -p message -e 32 -c 2 -a 0 -i 1 -k RTR
h -t 0.073282045 -s 4 -d -1 -p message -e 32 -c 2 -a 0 -i 1 -k RTR
r -t 0.076692100 -s 18 -d -1 -p message -e 32 -c 2 -a 0 -i 1 -k RTR
r -t 0.076692132 -s 15 -d -1 -p message -e 32 -c 2 -a 0 -i 1 -k RTR
r -t 0.076692195 -s 24 -d -1 -p message -e 32 -c 2 -a 0 -i 1 -k RTR
r -t 0.076692215 -s 28 -d -1 -p message -e 32 -c 2 -a 0 -i 1 -k RTR
r -t 0.076692346 -s 25 -d -1 -p message -e 32 -c 2 -a 0 -i 1 -k RTR
r -t 0.076692399 -s 20 -d -1 -p message -e 32 -c 2 -a 0 -i 1 -k RTR
r -t 0.076692520 -s 21 -d -1 -p message -e 32 -c 2 -a 0 -i 1 -k RTR
r -t 0.076692525 -s 27 -d -1 -p message -e 32 -c 2 -a 0 -i 1 -k RTR
r -t 0.076692642 -s 14 -d -1 -p message -e 32 -c 2 -a 0 -i 1 -k RTR
r -t 0.076692645 -s 23 -d -1 -p message -e 32 -c 2 -a 0 -i 1 -k RTR
r -t 0.076692679 -s 3 -d -1 -p message -e 32 -c 2 -a 0 -i 1 -k RTR
r -t 0.076692731 -s 26 -d -1 -p message -e 32 -c 2 -a 0 -i 1 -k RTR
r -t 0.076692864 -s 32 -d -1 -p message -e 32 -c 2 -a 0 -i 1 -k RTR
r -t 0.076692872 -s 6 -d -1 -p message -e 32 -c 2 -a 0 -i 1 -k RTR
r -t 0.076692876 -s 0 -d -1 -p message -e 32 -c 2 -a 0 -i 1 -k RTR
+ -t 0.088584275 -s 31 -d -1 -p message -e 32 -c 2 -a 0 -i 2 -k RTR 
- -t 0.088584275 -s 31 -d -1 -p message -e 32 -c 2 -a 0 -i 2 -k RTR
h -t 0.088584275 -s 31 -d -1 -p message -e 32 -c 2 -a 0 -i 2 -k RTR
r -t 0.092634318 -s 19 -d -1 -p message -e 32 -c 2 -a 0 -i 2 -k RTR
r -t 0.092634697 -s 5 -d -1 -p message -e 32 -c 2 -a 0 -i 2 -k RTR
r -t 0.092634755 -s 37 -d -1 -p message -e 32 -c 2 -a 0 -i 2 -k RTR
r -t 0.092634964 -s 2 -d -1 -p message -e 32 -c 2 -a 0 -i 2 -k RTR
r -t 0.092635000 -s 21 -d -1 -p message -e 32 -c 2 -a 0 -i 2 -k RTR
r -t 0.092635081 -s 35 -d -1 -p message -e 32 -c 2 -a 0 -i 2 -k RTR
+ -t 0.126846076 -s 36 -d -1 -p message -e 32 -c 2 -a 0 -i 3 -k RTR 
- -t 0.126846076 -s 36 -d -1 -p message -e 32 -c 2 -a 0 -i 3 -k RTR
h -t 0.126846076 -s 36 -d -1 -p message -e 32 -c 2 -a 0 -i 3 -k RTR
+ -t 0.129642904 -s 28 -d -1 -p message -e 32 -c 2 -a 0 -i 4 -k RTR 
- -t 0.129642904 -s 28 -d -1 -p message -e 32 -c 2 -a 0 -i 4 -k RTR
h -t 0.129642904 -s 28 -d -1 -p message -e 32 -c 2 -a 0 -i 4 -k RTR
r -t 0.130896174 -s 30 -d -1 -p message -e 32 -c 2 -a 0 -i 3 -k RTR
r -t 0.130896551 -s 17 -d -1 -p message -e 32 -c 2 -a 0 -i 3 -k RTR
r -t 0.130896639 -s 34 -d -1 -p message -e 32 -c 2 -a 0 -i 3 -k RTR
r -t 0.130896664 -s 22 -d -1 -p message -e 32 -c 2 -a 0 -i 3 -k RTR
r -t 0.130896687 -s 13 -d -1 -p message -e 32 -c 2 -a 0 -i 3 -k RTR
r -t 0.130896699 -s 9 -d -1 -p message -e 32 -c 2 -a 0 -i 3 -k RTR
r -t 0.130896700 -s 33 -d -1 -p message -e 32 -c 2 -a 0 -i 3 -k RTR
r -t 0.130896740 -s 10 -d -1 -p message -e 32 -c 2 -a 0 -i 3 -k RTR
r -t 0.130896750 -s 38 -d -1 -p message -e 32 -c 2 -a 0 -i 3 -k RTR
r -t 0.130896752 -s 16 -d -1 -p message -e 32 -c 2 -a 0 -i 3 -k RTR
r -t 0.130896769 -s 0 -d -1 -p message -e 32 -c 2 -a 0 -i 3 -k RTR
r -t 0.130896807 -s 11 -d -1 -p message -e 32 -c 2 -a 0 -i 3 -k RTR
r -t 0.130896831 -s 39 -d -1 -p message -e 32 -c 2 -a 0 -i 3 -k RTR
r -t 0.130896870 -s 7 -d -1 -p message -e 32 -c 2 -a 0 -i 3 -k RTR
r -t 0.133373074 -s 4 -d -1 -p message -e 32 -c 2 -a 0 -i 4 -k RTR
r -t 0.133373121 -s 25 -d -1 -p message -e 32 -c 2 -a 0 -i 4 -k RTR
r -t 0.133373124 -s 18 -d -1 -p message -e 32 -c 2 -a 0 -i 4 -k RTR
r -t 0.133373152 -s 15 -d -1 -p message -e 32 -c 2 -a 0 -i 4 -k RTR
r -t 0.133373215 -s 24 -d -1 -p message -e 32 -c 2 -a 0 -i 4 -k RTR
r -t 0.133373394 -s 20 -d -1 -p message -e 32 -c 2 -a 0 -i 4 -k RTR
r -t 0.133373509 -s 21 -d -1 -p message -e 32 -c 2 -a 0 -i 4 -k RTR
r -t 0.133373549 -s 23 -d -1 -p message -e 32 -c 2 -a 0 -i 4 -k RTR
r -t 0.133373554 -s 27 -d -1 -p message -e 32 -c 2 -a 0 -i 4 -k RTR
r -t 0.133373604 -s 14 -d -1 -p message -e 32 -c 2 -a 0 -i 4 -k RTR
r -t 0.133373651 -s 26 -d -1 -p message -e 32 -c 2 -a 0 -i 4 -k RTR
r -t 0.133373667 -s 3 -d -1 -p message -e 32 -c 2 -a 0 -i 4 -k RTR
+ -t 0.247164037 -s 15 -d -1 -p message -e 32 -c 2 -a 0 -i 5 -k RTR 
- -t 0.247164037 -s 15 -d -1 -p message -e 32 -c 2 -a 0 -i 5 -k RTR
h -t 0.247164037 -s 15 -d -1 -p message -e 32 -c 2 -a 0 -i 5 -k RTR
r -t 0.250574101 -s 24 -d -1 -p message -e 32 -c 2 -a 0 -i 5 -k RTR
r -t 0.250574113 -s 18 -d -1 -p message -e 32 -c 2 -a 0 -i 5 -k RTR
r -t 0.250574123 -s 4 -d -1 -p message -e 32 -c 2 -a 0 -i 5 -k RTR
r -t 0.250574284 -s 28 -d -1 -p message -e 32 -c 2 -a 0 -i 5 -k RTR
r -t 0.250574367 -s 25 -d -1 -p message -e 32 -c 2 -a 0 -i 5 -k RTR
r -t 0.250574382 -s 20 -d -1 -p message -e 32 -c 2 -a 0 -i 5 -k RTR
r -t 0.250574446 -s 27 -d -1 -p message -e 32 -c 2 -a 0 -i 5 -k RTR
r -t 0.250574502 -s 21 -d -1 -p message -e 32 -c 2 -a 0 -i 5 -k RTR
r -t 0.250574557 -s 14 -d -1 -p message -e 32 -c 2 -a 0 -i 5 -k RTR
r -t 0.250574585 -s 23 -d -1 -p message -e 32 -c 2 -a 0 -i 5 -k RTR
r -t 0.250574587 -s 3 -d -1 -p message -e 32 -c 2 -a 0 -i 5 -k RTR
r -t 0.250574662 -s 26 -d -1 -p message -e 32 -c 2 -a 0 -i 5 -k RTR
r -t 0.250574783 -s 0 -d -1 -p message -e 32 -c 2 -a 0 -i 5 -k RTR
r -t 0.250574799 -s 32 -d -1 -p message -e 32 -c 2 -a 0 -i 5 -k RTR
r -t 0.250574806 -s 6 -d -1 -p message -e 32 -c 2 -a 0 -i 5 -k RTR
r -t 0.250574843 -s 2 -d -1 -p message -e 32 -c 2 -a 0 -i 5 -k RTR
+ -t 0.321822596 -s 26 -d -1 -p message -e 32 -c 2 -a 0 -i 6 -k RTR 
- -t 0.321822596 -s 26 -d -1 -p message -e 32 -c 2 -a 0 -i 6 -k RTR
h -t 0.321822596 -s 26 -d -1 -p message -e 32 -c 2 -a 0 -i 6 -k RTR
r -t 0.324272712 -s 23 -d -1 -p message -e 32 -c 2 -a 0 -i 6 -k RTR
r -t 0.324272738 -s 32 -d -1 -p message -e 32 -c 2 -a 0 -i 6 -k RTR
r -t 0.324272743 -s 6 -d -1 -p message -e 32 -c 2 -a 0 -i 6 -k RTR
r -t 0.324272801 -s 14 -d -1 -p message -e 32 -c 2 -a 0 -i 6 -k RTR
r -t 0.324272937 -s 3 -d -1 -p message -e 32 -c 2 -a 0 -i 6 -k RTR
r -t 0.324273007 -s 0 -d -1 -p message -e 32 -c 2 -a 0 -i 6 -k RTR
r -t 0.324273190 -s 25 -d -1 -p message -e 32 -c 2 -a 0 -i 6 -k RTR
r -t 0.324273193 -s 24 -d -1 -p message -e 32 -c 2 -a 0 -i 6 -k RTR
r -t 0.324273221 -s 15 -d -1 -p message -e 32 -c 2 -a 0 -i 6 -k RTR
r -t 0.324273232 -s 17 -d -1 -p message -e 32 -c 2 -a 0 -i 6 -k RTR
r -t 0.324273282 -s 4 -d -1 -p message -e 32 -c 2 -a 0 -i 6 -k RTR
r -t 0.324273297 -s 18 -d -1 -p message -e 32 -c 2 -a 0 -i 6 -k RTR
r -t 0.324273331 -s 27 -d -1 -p message -e 32 -c 2 -a 0 -i 6 -k RTR
r -t 0.324273343 -s 28 -d -1 -p message -e 32 -c 2 -a 0 -i 6 -k RTR
r -t 0.324273384 -s 22 -d -1 -p message -e 32 -c 2 -a 0 -i 6 -k RTR
+ -t 0.349191800 -s 3 -d -1 -p message -e 32 -c 2 -a 0 -i 7 -k RTR 
- -t 0.349191800 -s 3 -d -1 -p message -e 32 -c 2 -a 0 -i 7 -k RTR
h -t 0.349191800 -s 3 -d -1 -p message -e 32 -c 2 -a 0 -i 7 -k RTR
r -t 0.352921945 -s 14 -d -1 -p message -e 32 -c 2 -a 0 -i 7 -k RTR
r -t 0.352921997 -s 0 -d -1 -p message -e 32 -c 2 -a 0 -i 7 -k RTR
r -t 0.352922141 -s 26 -d -1 -p message -e 32 -c 2 -a 0 -i 7 -k RTR
r -t 0.352922188 -s 23 -d -1 -p message -e 32 -c 2 -a 0 -i 7 -k RTR
r -t 0.352922197 -s 17 -d -1 -p message -e 32 -c 2 -a 0 -i 7 -k RTR
r -t 0.352922248 -s 6 -d -1 -p message -e 32 -c 2 -a 0 -i 7 -k RTR
r -t 0.352922252 -s 32 -d -1 -p message -e 32 -c 2 -a 0 -i 7 -k RTR
r -t 0.352922260 -s 27 -d -1 -p message -e 32 -c 2 -a 0 -i 7 -k RTR
r -t 0.352922294 -s 24 -d -1 -p message -e 32 -c 2 -a 0 -i 7 -k RTR
r -t 0.352922350 -s 15 -d -1 -p message -e 32 -c 2 -a 0 -i 7 -k RTR
r -t 0.352922421 -s 18 -d -1 -p message -e 32 -c 2 -a 0 -i 7 -k RTR
r -t 0.352922424 -s 11 -d -1 -p message -e 32 -c 2 -a 0 -i 7 -k RTR
r -t 0.352922434 -s 4 -d -1 -p message -e 32 -c 2 -a 0 -i 7 -k RTR
r -t 0.352922498 -s 25 -d -1 -p message -e 32 -c 2 -a 0 -i 7 -k RTR
r -t 0.352922528 -s 20 -d -1 -p message -e 32 -c 2 -a 0 -i 7 -k RTR
r -t 0.352922563 -s 28 -d -1 -p message -e 32 -c 2 -a 0 -i 7 -k RTR
r -t 0.352922567 -s 2 -d -1 -p message -e 32 -c 2 -a 0 -i 7 -k RTR
r -t 0.352922592 -s 22 -d -1 -p message -e 32 -c 2 -a 0 -i 7 -k RTR
r -t 0.352922606 -s 21 -d -1 -p message -e 32 -c 2 -a 0 -i 7 -k RTR
+ -t 0.356017125 -s 29 -d -1 -p message -e 32 -c 2 -a 0 -i 8 -k RTR 
- -t 0.356017125 -s 29 -d -1 -p message -e 32 -c 2 -a 0 -i 8 -k RTR
h -t 0.356017125 -s 29 -d -1 -p message -e 32 -c 2 -a 0 -i 8 -k RTR
r -t 0.359427243 -s 8 -d -1 -p message -e 32 -c 2 -a 0 -i 8 -k RTR
r -t 0.359427256 -s 35 -d -1 -p message -e 32 -c 2 -a 0 -i 8 -k RTR
r -t 0.359427293 -s 7 -d -1 -p message -e 32 -c 2 -a 0 -i 8 -k RTR
r -t 0.359427395 -s 12 -d -1 -p message -e 32 -c 2 -a 0 -i 8 -k RTR
r -t 0.359427429 -s 1 -d -1 -p message -e 32 -c 2 -a 0 -i 8 -k RTR
r -t 0.359427467 -s 9 -d -1 -p message -e 32 -c 2 -a 0 -i 8 -k RTR
r -t 0.359427477 -s 13 -d -1 -p message -e 32 -c 2 -a 0 -i 8 -k RTR
r -t 0.359427531 -s 38 -d -1 -p message -e 32 -c 2 -a 0 -i 8 -k RTR
r -t 0.359427557 -s 34 -d -1 -p message -e 32 -c 2 -a 0 -i 8 -k RTR
r -t 0.359427582 -s 39 -d -1 -p message -e 32 -c 2 -a 0 -i 8 -k RTR
r -t 0.359427602 -s 11 -d -1 -p message -e 32 -c 2 -a 0 -i 8 -k RTR
r -t 0.359427656 -s 2 -d -1 -p message -e 32 -c 2 -a 0 -i 8 -k RTR
r -t 0.359427704 -s 37 -d -1 -p message -e 32 -c 2 -a 0 -i 8 -k RTR
r -t 0.359427732 -s 33 -d -1 -p message -e 32 -c 2 -a 0 -i 8 -k RTR
r -t 0.359427811 -s 16 -d -1 -p message -e 32 -c 2 -a 0 -i 8 -k RTR
r -t 0.359427820 -s 5 -d -1 -p message -e 32 -c 2 -a 0 -i 8 -k RTR
+ -t 0.421784672 -s 10 -d -1 -p message -e 32 -c 2 -a 0 -i 9 -k RTR 
- -t 0.421784672 -s 10 -d -1 -p message -e 32 -c 2 -a 0 -i 9 -k RTR
h -t 0.421784672 -s 10 -d -1 -p message -e 32 -c 2 -a 0 -i 9 -k RTR
r -t 0.425514774 -s 22 -d -1 -p message -e 32 -c 2 -a 0 -i 9 -k RTR
r -t 0.425515336 -s 36 -d -1 -p message -e 32 -c 2 -a 0 -i 9 -k RTR
r -t 0.425515337 -s 17 -d -1 -p message -e 32 -c 2 -a 0 -i 9 -k RTR
r -t 0.425515374 -s 0 -d -1 -p message -e 32 -c 2 -a 0 -i 9 -k RTR
r -t 0.425515423 -s 6 -d -1 -p message -e 32 -c 2 -a 0 -i 9 -k RTR
r -t 0.425515428 -s 30 -d -1 -p message -e 32 -c 2 -a 0 -i 9 -k RTR
r -t 0.425515438 -s 32 -d -1 -p message -e 32 -c 2 -a 0 -i 9 -k RTR
+ -t 0.429968552 -s 17 -d -1 -p message -e 32 -c 2 -a 0 -i 10 -k RTR 
- -t 0.429968552 -s 17 -d -1 -p message -e 32 -c 2 -a 0 -i 10 -k RTR
h -t 0.429968552 -s 17 -d -1 -p message -e 32 -c 2 -a 0 -i 10 -k RTR
r -t 0.434018780 -s 0 -d -1 -p message -e 32 -c 2 -a 0 -i 10 -k RTR
r -t 0.434018948 -s 3 -d -1 -p message -e 32 -c 2 -a 0 -i 10 -k RTR
r -t 0.434019027 -s 36 -d -1 -p message -e 32 -c 2 -a 0 -i 10 -k RTR
r -t 0.434019035 -s 30 -d -1 -p message -e 32 -c 2 -a 0 -i 10 -k RTR
r -t 0.434019059 -s 14 -d -1 -p message -e 32 -c 2 -a 0 -i 10 -k RTR
r -t 0.434019062 -s 11 -d -1 -p message -e 32 -c 2 -a 0 -i 10 -k RTR
r -t 0.434019115 -s 22 -d -1 -p message -e 32 -c 2 -a 0 -i 10 -k RTR
r -t 0.434019187 -s 26 -d -1 -p message -e 32 -c 2 -a 0 -i 10 -k RTR
r -t 0.434019192 -s 13 -d -1 -p message -e 32 -c 2 -a 0 -i 10 -k RTR
r -t 0.434019216 -s 10 -d -1 -p message -e 32 -c 2 -a 0 -i 10 -k RTR
r -t 0.434019218 -s 6 -d -1 -p message -e 32 -c 2 -a 0 -i 10 -k RTR
r -t 0.434019230 -s 32 -d -1 -p message -e 32 -c 2 -a 0 -i 10 -k RTR
r -t 0.434019238 -s 9 -d -1 -p message -e 32 -c 2 -a 0 -i 10 -k RTR
r -t 0.434019249 -s 27 -d -1 -p message -e 32 -c 2 -a 0 -i 10 -k RTR
r -t 0.434019261 -s 34 -d -1 -p message -e 32 -c 2 -a 0 -i 10 -k RTR
r -t 0.434019278 -s 23 -d -1 -p message -e 32 -c 2 -a 0 -i 10 -k RTR
r -t 0.434019282 -s 12 -d -1 -p message -e 32 -c 2 -a 0 -i 10 -k RTR
r -t 0.434019346 -s 7 -d -1 -p message -e 32 -c 2 -a 0 -i 10 -k RTR
r -t 0.434019365 -s 2 -d -1 -p message -e 32 -c 2 -a 0 -i 10 -k RTR
+ -t 0.454435365 -s 34 -d -1 -p message -e 32 -c 2 -a 0 -i 11 -k RTR 
- -t 0.454435365 -s 34 -d -1 -p message -e 32 -c 2 -a 0 -i 11 -k RTR
h -t 0.454435365 -s 34 -d -1 -p message -e 32 -c 2 -a 0 -i 11 -k RTR
r -t 0.458165482 -s 9 -d -1 -p message -e 32 -c 2 -a 0 -i 11 -k RTR
r -t 0.458165502 -s 38 -d -1 -p message -e 32 -c 2 -a 0 -i 11 -k RTR
r -t 0.458165522 -s 13 -d -1 -p message -e 32 -c 2 -a 0 -i 11 -k RTR
r -t 0.458165620 -s 39 -d -1 -p message -e 32 -c 2 -a 0 -i 11 -k RTR
r -t 0.458165629 -s 33 -d -1 -p message -e 32 -c 2 -a 0 -i 11 -k RTR
r -t 0.458165642 -s 7 -d -1 -p message -e 32 -c 2 -a 0 -i 11 -k RTR
r -t 0.458165652 -s 1 -d -1 -p message -e 32 -c 2 -a 0 -i 11 -k RTR
r -t 0.458165729 -s 16 -d -1 -p message -e 32 -c 2 -a 0 -i 11 -k RTR
r -t 0.458165797 -s 29 -d -1 -p message -e 32 -c 2 -a 0 -i 11 -k RTR
r -t 0.458165831 -s 30 -d -1 -p message -e 32 -c 2 -a 0 -i 11 -k RTR
r -t 0.458165832 -s 12 -d -1 -p message -e 32 -c 2 -a 0 -i 11 -k RTR
r -t 0.458165852 -s 11 -d -1 -p message -e 32 -c 2 -a 0 -i 11 -k RTR
r -t 0.458165864 -s 8 -d -1 -p message -e 32 -c 2 -a 0 -i 11 -k RTR
r -t 0.458165917 -s 35 -d -1 -p message -e 32 -c 2 -a 0 -i 11 -k RTR
r -t 0.458165929 -s 36 -d -1 -p message -e 32 -c 2 -a 0 -i 11 -k RTR
r -t 0.458166074 -s 17 -d -1 -p message -e 32 -c 2 -a 0 -i 11 -k RTR
r -t 0.458166135 -s 2 -d -1 -p message -e 32 -c 2 -a 0 -i 11 -k RTR
+ -t 0.474672686 -s 27 -d -1 -p message -e 32 -c 2 -a 0 -i 12 -k RTR 
- -t 0.474672686 -s 27 -d -1 -p message -e 32 -c 2 -a 0 -i 12 -k RTR
h -t 0.474672686 -s 27 -d -1 -p message -e 32 -c 2 -a 0 -i 12 -k RTR
r -t 0.477123020 -s 20 -d -1 -p message -e 32 -c 2 -a 0 -i 12 -k RTR
r -t 0.477123040 -s 24 -d -1 -p message -e 32 -c 2 -a 0 -i 12 -k RTR
r -t 0.477123057 -s 21 -d -1 -p message -e 32 -c 2 -a 0 -i 12 -k RTR
r -t 0.477123096 -s 15 -d -1 -p message -e 32 -c 2 -a 0 -i 12 -k RTR
r -t 0.477123097 -s 2 -d -1 -p message -e 32 -c 2 -a 0 -i 12 -k RTR
r -t 0.477123118 -s 18 -d -1 -p message -e 32 -c 2 -a 0 -i 12 -k RTR
r -t 0.477123146 -s 3 -d -1 -p message -e 32 -c 2 -a 0 -i 12 -k RTR
r -t 0.477123166 -s 4 -d -1 -p message -e 32 -c 2 -a 0 -i 12 -k RTR
r -t 0.477123199 -s 11 -d -1 -p message -e 32 -c 2 -a 0 -i 12 -k RTR
r -t 0.477123228 -s 5 -d -1 -p message -e 32 -c 2 -a 0 -i 12 -k RTR
r -t 0.477123228 -s 14 -d -1 -p message -e 32 -c 2 -a 0 -i 12 -k RTR
r -t 0.477123242 -s 37 -d -1 -p message -e 32 -c 2 -a 0 -i 12 -k RTR
r -t 0.477123295 -s 0 -d -1 -p message -e 32 -c 2 -a 0 -i 12 -k RTR
r -t 0.477123321 -s 12 -d -1 -p message -e 32 -c 2 -a 0 -i 12 -k RTR
r -t 0.477123336 -s 28 -d -1 -p message -e 32 -c 2 -a 0 -i 12 -k RTR
r -t 0.477123383 -s 17 -d -1 -p message -e 32 -c 2 -a 0 -i 12 -k RTR
r -t 0.477123406 -s 23 -d -1 -p message -e 32 -c 2 -a 0 -i 12 -k RTR
r -t 0.477123411 -s 25 -d -1 -p message -e 32 -c 2 -a 0 -i 12 -k RTR
r -t 0.477123421 -s 26 -d -1 -p message -e 32 -c 2 -a 0 -i 12 -k RTR
r -t 0.477123483 -s 8 -d -1 -p message -e 32 -c 2 -a 0 -i 12 -k RTR
+ -t 0.671962519 -s 14 -d -1 -p message -e 32 -c 2 -a 0 -i 13 -k RTR 
- -t 0.671962519 -s 14 -d -1 -p message -e 32 -c 2 -a 0 -i 13 -k RTR
h -t 0.671962519 -s 14 -d -1 -p message -e 32 -c 2 -a 0 -i 13 -k RTR
r -t 0.676652664 -s 3 -d -1 -p message -e 32 -c 2 -a 0 -i 13 -k RTR
r -t 0.676652724 -s 26 -d -1 -p message -e 32 -c 2 -a 0 -i 13 -k RTR
r -t 0.676652763 -s 23 -d -1 -p message -e 32 -c 2 -a 0 -i 13 -k RTR
r -t 0.676652802 -s 0 -d -1 -p message -e 32 -c 2 -a 0 -i 13 -k RTR
r -t 0.676652849 -s 6 -d -1 -p message -e 32 -c 2 -a 0 -i 13 -k RTR
r -t 0.676652851 -s 32 -d -1 -p message -e 32 -c 2 -a 0 -i 13 -k RTR
r -t 0.676652995 -s 24 -d -1 -p message -e 32 -c 2 -a 0 -i 13 -k RTR
r -t 0.676653027 -s 17 -d -1 -p message -e 32 -c 2 -a 0 -i 13 -k RTR
r -t 0.676653040 -s 15 -d -1 -p message -e 32 -c 2 -a 0 -i 13 -k RTR
r -t 0.676653061 -s 27 -d -1 -p message -e 32 -c 2 -a 0 -i 13 -k RTR
r -t 0.676653115 -s 18 -d -1 -p message -e 32 -c 2 -a 0 -i 13 -k RTR
r -t 0.676653116 -s 4 -d -1 -p message -e 32 -c 2 -a 0 -i 13 -k RTR
r -t 0.676653120 -s 25 -d -1 -p message -e 32 -c 2 -a 0 -i 13 -k RTR
r -t 0.676653220 -s 28 -d -1 -p message -e 32 -c 2 -a 0 -i 13 -k RTR
r -t 0.676653280 -s 20 -d -1 -p message -e 32 -c 2 -a 0 -i 13 -k RTR
r -t 0.676653286 -s 11 -d -1 -p message -e 32 -c 2 -a 0 -i 13 -k RTR
r -t 0.676653328 -s 22 -d -1 -p message -e 32 -c 2 -a 0 -i 13 -k RTR
+ -t 0.684226311 -s 37 -d -1 -p message -e 32 -c 2 -a 0 -i 14 -k RTR 
- -t 0.684226311 -s 37 -d -1 -p message -e 32 -c 2 -a 0 -i 14 -k RTR
h -t 0.684226311 -s 37 -d -1 -p message -e 32 -c 2 -a 0 -i 14 -k RTR
r -t 0.688276427 -s 5 -d -1 -p message -e 32 -c 2 -a 0 -i 14 -k RTR
r -t 0.688276523 -s 2 -d -1 -p message -e 32 -c 2 -a 0 -i 14 -k RTR
r -t 0.688276753 -s 12 -d -1 -p message -e 32 -c 2 -a 0 -i 14 -k RTR
r -t 0.688276773 -s 8 -d -1 -p message -e 32 -c 2 -a 0 -i 14 -k RTR
r -t 0.688276776 -s 35 -d -1 -p message -e 32 -c 2 -a 0 -i 14 -k RTR
r -t 0.688276790 -s 19 -d -1 -p message -e 32 -c 2 -a 0 -i 14 -k RTR
r -t 0.688276791 -s 31 -d -1 -p message -e 32 -c 2 -a 0 -i 14 -k RTR
r -t 0.688276843 -s 21 -d -1 -p message -e 32 -c 2 -a 0 -i 14 -k RTR
r -t 0.688276866 -s 11 -d -1 -p message -e 32 -c 2 -a 0 -i 14 -k RTR
r -t 0.688276867 -s 27 -d -1 -p message -e 32 -c 2 -a 0 -i 14 -k RTR
r -t 0.688276890 -s 29 -d -1 -p message -e 32 -c 2 -a 0 -i 14 -k RTR
r -t 0.688276937 -s 20 -d -1 -p message -e 32 -c 2 -a 0 -i 14 -k RTR
r -t 0.688276964 -s 7 -d -1 -p message -e 32 -c 2 -a 0 -i 14 -k RTR
r -t 0.688277072 -s 13 -d -1 -p message -e 32 -c 2 -a 0 -i 14 -k RTR
r -t 0.688277101 -s 9 -d -1 -p message -e 32 -c 2 -a 0 -i 14 -k RTR
+ -t 0.820392893 -s 20 -d -1 -p message -e 32 -c 2 -a 0 -i 15 -k RTR 
- -t 0.820392893 -s 20 -d -1 -p message -e 32 -c 2 -a 0 -i 15 -k RTR
h -t 0.820392893 -s 20 -d -1 -p message -e 32 -c 2 -a 0 -i 15 -k RTR
r -t 0.824123014 -s 21 -d -1 -p message -e 32 -c 2 -a 0 -i 15 -k RTR
r -t 0.824123194 -s 18 -d -1 -p message -e 32 -c 2 -a 0 -i 15 -k RTR
r -t 0.824123226 -s 27 -d -1 -p message -e 32 -c 2 -a 0 -i 15 -k RTR
r -t 0.824123231 -s 24 -d -1 -p message -e 32 -c 2 -a 0 -i 15 -k RTR
r -t 0.824123237 -s 15 -d -1 -p message -e 32 -c 2 -a 0 -i 15 -k RTR
r -t 0.824123246 -s 4 -d -1 -p message -e 32 -c 2 -a 0 -i 15 -k RTR
r -t 0.824123382 -s 28 -d -1 -p message -e 32 -c 2 -a 0 -i 15 -k RTR
r -t 0.824123443 -s 5 -d -1 -p message -e 32 -c 2 -a 0 -i 15 -k RTR
r -t 0.824123482 -s 2 -d -1 -p message -e 32 -c 2 -a 0 -i 15 -k RTR
r -t 0.824123519 -s 37 -d -1 -p message -e 32 -c 2 -a 0 -i 15 -k RTR
r -t 0.824123547 -s 25 -d -1 -p message -e 32 -c 2 -a 0 -i 15 -k RTR
r -t 0.824123620 -s 3 -d -1 -p message -e 32 -c 2 -a 0 -i 15 -k RTR
r -t 0.824123653 -s 14 -d -1 -p message -e 32 -c 2 -a 0 -i 15 -k RTR
r -t 0.824123707 -s 19 -d -1 -p message -e 32 -c 2 -a 0 -i 15 -k RTR
r -t 0.824123708 -s 11 -d -1 -p message -e 32 -c 2 -a 0 -i 15 -k RTR
+ -t 0.850035071 -s 19 -d -1 -p message -e 32 -c 2 -a 0 -i 16 -k RTR 
- -t 0.850035071 -s 19 -d -1 -p message -e 32 -c 2 -a 0 -i 16 -k RTR
h -t 0.850035071 -s 19 -d -1 -p message -e 32 -c 2 -a 0 -i 16 -k RTR
r -t 0.854725114 -s 31 -d -1 -p message -e 32 -c 2 -a 0 -i 16 -k RTR
r -t 0.854725484 -s 5 -d -1 -p message -e 32 -c 2 -a 0 -i 16 -k RTR
r -t 0.854725550 -s 37 -d -1 -p message -e 32 -c 2 -a 0 -i 16 -k RTR
r -t 0.854725757 -s 2 -d -1 -p message -e 32 -c 2 -a 0 -i 16 -k RTR
r -t 0.854725763 -s 21 -d -1 -p message -e 32 -c 2 -a 0 -i 16 -k RTR
r -t 0.854725885 -s 20 -d -1 -p message -e 32 -c 2 -a 0 -i 16 -k RTR
r -t 0.854725898 -s 35 -d -1 -p message -e 32 -c 2 -a 0 -i 16 -k RTR
+ -t 0.869383415 -s 18 -d -1 -p message -e 32 -c 2 -a 0 -i 17 -k RTR 
- -t 0.869383415 -s 18 -d -1 -p message -e 32 -c 2 -a 0 -i 17 -k RTR
h -t 0.869383415 -s 18 -d -1 -p message -e 32 -c 2 -a 0 -i 17 -k RTR
r -t 0.872793470 -s 4 -d -1 -p message -e 32 -c 2 -a 0 -i 17 -k RTR
r -t 0.872793492 -s 15 -d -1 -p message -e 32 -c 2 -a 0 -i 17 -k RTR
r -t 0.872793542 -s 24 -d -1 -p message -e 32 -c 2 -a 0 -i 17 -k RTR
r -t 0.872793636 -s 28 -d -1 -p message -e 32 -c 2 -a 0 -i 17 -k RTR
r -t 0.872793717 -s 20 -d -1 -p message -e 32 -c 2 -a 0 -i 17 -k RTR
r -t 0.872793769 -s 25 -d -1 -p message -e 32 -c 2 -a 0 -i 17 -k RTR
r -t 0.872793838 -s 21 -d -1 -p message -e 32 -c 2 -a 0 -i 17 -k RTR
r -t 0.872793847 -s 27 -d -1 -p message -e 32 -c 2 -a 0 -i 17 -k RTR
r -t 0.872794012 -s 14 -d -1 -p message -e 32 -c 2 -a 0 -i 17 -k RTR
r -t 0.872794036 -s 3 -d -1 -p message -e 32 -c 2 -a 0 -i 17 -k RTR
r -t 0.872794036 -s 23 -d -1 -p message -e 32 -c 2 -a 0 -i 17 -k RTR
r -t 0.872794116 -s 26 -d -1 -p message -e 32 -c 2 -a 0 -i 17 -k RTR
r -t 0.872794226 -s 2 -d -1 -p message -e 32 -c 2 -a 0 -i 17 -k RTR
r -t 0.872794232 -s 0 -d -1 -p message -e 32 -c 2 -a 0 -i 17 -k RTR
+ -t 0.875205073 -s 13 -d -1 -p message -e 32 -c 2 -a 0 -i 18 -k RTR 
- -t 0.875205073 -s 13 -d -1 -p message -e 32 -c 2 -a 0 -i 18 -k RTR
h -t 0.875205073 -s 13 -d -1 -p message -e 32 -c 2 -a 0 -i 18 -k RTR
r -t 0.877975127 -s 9 -d -1 -p message -e 32 -c 2 -a 0 -i 18 -k RTR
r -t 0.877975230 -s 34 -d -1 -p message -e 32 -c 2 -a 0 -i 18 -k RTR
r -t 0.877975257 -s 7 -d -1 -p message -e 32 -c 2 -a 0 -i 18 -k RTR
r -t 0.877975327 -s 38 -d -1 -p message -e 32 -c 2 -a 0 -i 18 -k RTR
r -t 0.877975391 -s 12 -d -1 -p message -e 32 -c 2 -a 0 -i 18 -k RTR
r -t 0.877975408 -s 11 -d -1 -p message -e 32 -c 2 -a 0 -i 18 -k RTR
r -t 0.877975411 -s 1 -d -1 -p message -e 32 -c 2 -a 0 -i 18 -k RTR
r -t 0.877975425 -s 29 -d -1 -p message -e 32 -c 2 -a 0 -i 18 -k RTR
r -t 0.877975446 -s 39 -d -1 -p message -e 32 -c 2 -a 0 -i 18 -k RTR
r -t 0.877975460 -s 8 -d -1 -p message -e 32 -c 2 -a 0 -i 18 -k RTR
r -t 0.877975492 -s 33 -d -1 -p message -e 32 -c 2 -a 0 -i 18 -k RTR
r -t 0.877975524 -s 35 -d -1 -p message -e 32 -c 2 -a 0 -i 18 -k RTR
r -t 0.877975591 -s 30 -d -1 -p message -e 32 -c 2 -a 0 -i 18 -k RTR
r -t 0.877975592 -s 16 -d -1 -p message -e 32 -c 2 -a 0 -i 18 -k RTR
r -t 0.877975684 -s 36 -d -1 -p message -e 32 -c 2 -a 0 -i 18 -k RTR
r -t 0.877975687 -s 2 -d -1 -p message -e 32 -c 2 -a 0 -i 18 -k RTR
r -t 0.877975713 -s 17 -d -1 -p message -e 32 -c 2 -a 0 -i 18 -k RTR
r -t 0.877975834 -s 37 -d -1 -p message -e 32 -c 2 -a 0 -i 18 -k RTR
r -t 0.877975895 -s 0 -d -1 -p message -e 32 -c 2 -a 0 -i 18 -k RTR
+ -t 0.884601285 -s 12 -d -1 -p message -e 32 -c 2 -a 0 -i 19 -k RTR 
- -t 0.884601285 -s 12 -d -1 -p message -e 32 -c 2 -a 0 -i 19 -k RTR
h -t 0.884601285 -s 12 -d -1 -p message -e 32 -c 2 -a 0 -i 19 -k RTR
r -t 0.888971478 -s 8 -d -1 -p message -e 32 -c 2 -a 0 -i 19 -k RTR
r -t 0.888971512 -s 11 -d -1 -p message -e 32 -c 2 -a 0 -i 19 -k RTR
r -t 0.888971527 -s 7 -d -1 -p message -e 32 -c 2 -a 0 -i 19 -k RTR
r -t 0.888971549 -s 35 -d -1 -p message -e 32 -c 2 -a 0 -i 19 -k RTR
r -t 0.888971555 -s 29 -d -1 -p message -e 32 -c 2 -a 0 -i 19 -k RTR
r -t 0.888971596 -s 2 -d -1 -p message -e 32 -c 2 -a 0 -i 19 -k RTR
r -t 0.888971603 -s 13 -d -1 -p message -e 32 -c 2 -a 0 -i 19 -k RTR
r -t 0.888971635 -s 9 -d -1 -p message -e 32 -c 2 -a 0 -i 19 -k RTR
r -t 0.888971728 -s 37 -d -1 -p message -e 32 -c 2 -a 0 -i 19 -k RTR
r -t 0.888971752 -s 34 -d -1 -p message -e 32 -c 2 -a 0 -i 19 -k RTR
r -t 0.888971785 -s 1 -d -1 -p message -e 32 -c 2 -a 0 -i 19 -k RTR
r -t 0.888971804 -s 38 -d -1 -p message -e 32 -c 2 -a 0 -i 19 -k RTR
r -t 0.888971835 -s 5 -d -1 -p message -e 32 -c 2 -a 0 -i 19 -k RTR
r -t 0.888971899 -s 39 -d -1 -p message -e 32 -c 2 -a 0 -i 19 -k RTR
r -t 0.888971919 -s 27 -d -1 -p message -e 32 -c 2 -a 0 -i 19 -k RTR
r -t 0.888971999 -s 33 -d -1 -p message -e 32 -c 2 -a 0 -i 19 -k RTR
r -t 0.888972015 -s 17 -d -1 -p message -e 32 -c 2 -a 0 -i 19 -k RTR
r -t 0.888972076 -s 30 -d -1 -p message -e 32 -c 2 -a 0 -i 19 -k RTR
r -t 0.888972094 -s 16 -d -1 -p message -e 32 -c 2 -a 0 -i 19 -k RTR
+ -t 0.902722248 -s 9 -d -1 -p message -e 32 -c 2 -a 0 -i 20 -k RTR 
- -t 0.902722248 -s 9 -d -1 -p message -e 32 -c 2 -a 0 -i 20 -k RTR
h -t 0.902722248 -s 9 -d -1 -p message -e 32 -c 2 -a 0 -i 20 -k RTR
r -t 0.906452303 -s 13 -d -1 -p message -e 32 -c 2 -a 0 -i 20 -k RTR
r -t 0.906452365 -s 34 -d -1 -p message -e 32 -c 2 -a 0 -i 20 -k RTR
r -t 0.906452424 -s 7 -d -1 -p message -e 32 -c 2 -a 0 -i 20 -k RTR
r -t 0.906452449 -s 38 -d -1 -p message -e 32 -c 2 -a 0 -i 20 -k RTR
r -t 0.906452537 -s 1 -d -1 -p message -e 32 -c 2 -a 0 -i 20 -k RTR
r -t 0.906452567 -s 39 -d -1 -p message -e 32 -c 2 -a 0 -i 20 -k RTR
r -t 0.906452590 -s 29 -d -1 -p message -e 32 -c 2 -a 0 -i 20 -k RTR
r -t 0.906452599 -s 12 -d -1 -p message -e 32 -c 2 -a 0 -i 20 -k RTR
r -t 0.906452621 -s 33 -d -1 -p message -e 32 -c 2 -a 0 -i 20 -k RTR
r -t 0.906452636 -s 11 -d -1 -p message -e 32 -c 2 -a 0 -i 20 -k RTR
r -t 0.906452642 -s 8 -d -1 -p message -e 32 -c 2 -a 0 -i 20 -k RTR
r -t 0.906452700 -s 35 -d -1 -p message -e 32 -c 2 -a 0 -i 20 -k RTR
r -t 0.906452719 -s 16 -d -1 -p message -e 32 -c 2 -a 0 -i 20 -k RTR
r -t 0.906452776 -s 30 -d -1 -p message -e 32 -c 2 -a 0 -i 20 -k RTR
r -t 0.906452872 -s 36 -d -1 -p message -e 32 -c 2 -a 0 -i 20 -k RTR
r -t 0.906452902 -s 2 -d -1 -p message -e 32 -c 2 -a 0 -i 20 -k RTR
r -t 0.906452934 -s 17 -d -1 -p message -e 32 -c 2 -a 0 -i 20 -k RTR
r -t 0.906453039 -s 37 -d -1 -p message -e 32 -c 2 -a 0 -i 20 -k RTR
+ -t 0.974422618 -s 22 -d -1 -p message -e 32 -c 2 -a 0 -i 21 -k RTR 
- -t 0.974422618 -s 22 -d -1 -p message -e 32 -c 2 -a 0 -i 21 -k RTR
h -t 0.974422618 -s 22 -d -1 -p message -e 32 -c 2 -a 0 -i 21 -k RTR
r -t 0.976872720 -s 10 -d -1 -p message -e 32 -c 2 -a 0 -i 21 -k RTR
r -t 0.976873182 -s 17 -d -1 -p message -e 32 -c 2 -a 0 -i 21 -k RTR
r -t 0.976873206 -s 36 -d -1 -p message -e 32 -c 2 -a 0 -i 21 -k RTR
r -t 0.976873228 -s 0 -d -1 -p message -e 32 -c 2 -a 0 -i 21 -k RTR
r -t 0.976873295 -s 30 -d -1 -p message -e 32 -c 2 -a 0 -i 21 -k RTR
r -t 0.976873323 -s 6 -d -1 -p message -e 32 -c 2 -a 0 -i 21 -k RTR
r -t 0.976873337 -s 32 -d -1 -p message -e 32 -c 2 -a 0 -i 21 -k RTR
r -t 0.976873406 -s 26 -d -1 -p message -e 32 -c 2 -a 0 -i 21 -k RTR
r -t 0.976873410 -s 3 -d -1 -p message -e 32 -c 2 -a 0 -i 21 -k RTR
r -t 0.976873427 -s 14 -d -1 -p message -e 32 -c 2 -a 0 -i 21 -k RTR
n -t 1.000000 -s 0 -x 144.000000 -y 302.000000 -U 3.992210 -V -0.249513 -T 76.148293
n -t 1.000000 -s 1 -x 482.000000 -y 385.000000 -U -0.822897 -V 0.568191 -T 102.078401