n -t * -s 0  -x 72 -y 151 -Z 0 -z 20  -v circle -c black
n -t * -s 1  -x 241 -y 193 -Z 0 -z 20  -v circle -c black
n -t * -s 2  -x 181 -y 88 -Z 0 -z 20  -v circle -c black
n -t * -s 3  -x 71 -y 122 -Z 0 -z 20  -v circle -c black
n -t * -s 4  -x 67 -y 27 -Z 0 -z 20  -v circle -c black
n -t * -s 5  -x 199 -y 50 -Z 0 -z 20  -v circle -c black
n -t * -s 6  -x 5 -y 134 -Z 0 -z 20  -v circle -c black
n -t * -s 7  -x 215 -y 164 -Z 0 -z 20  -v circle -c black
n -t * -s 8  -x 226 -y 132 -Z 0 -z 20  -v circle -c black
n -t * -s 9  -x 199 -y 185 -Z 0 -z 20  -v circle -c black
n -t * -s 10  -x 25 -y 245 -Z 0 -z 20  -v circle -c black
n -t * -s 11  -x 163 -y 139 -Z 0 -z 20  -v circle -c black
n -t * -s 12  -x 197 -y 132 -Z 0 -z 20  -v circle -c black
n -t * -s 13  -x 192 -y 180 -Z 0 -z 20  -v circle -c black
n -t * -s 14  -x 51 -y 115 -Z 0 -z 20  -v circle -c black
n -t * -s 15  -x 71 -y 39 -Z 0 -z 20  -v circle -c black
n -t * -s 16  -x 225 -y 250 -Z 0 -z 20  -v circle -c black
n -t * -s 17  -x 96 -y 176 -Z 0 -z 20  -v circle -c black
n -t * -s 18  -x 75 -y 29 -Z 0 -z 20  -v circle -c black
n -t * -s 19  -x 241 -y 4 -Z 0 -z 20  -v circle -c black
n -t * -s 20  -x 120 -y 24 -Z 0 -z 20  -v circle -c black
n -t * -s 21  -x 138 -y 21 -Z 0 -z 20  -v circle -c black
n -t * -s 22  -x 36 -y 235 -Z 0 -z 20  -v circle -c black
n -t * -s 23  -x 17 -y 101 -Z 0 -z 20  -v circle -c black
n -t * -s 24  -x 75 -y 48 -Z 0 -z 20  -v circle -c black
n -t * -s 25  -x 22 -y 29 -Z 0 -z 20  -v circle -c black
n -t * -s 26  -x 20 -y 118 -Z 0 -z 20  -v circle -c black
n -t * -s 27  -x 121 -y 74 -Z 0 -z 20  -v circle -c black
n -t * -s 28  -x 48 -y 10 -Z 0 -z 20  -v circle -c black
n -t * -s 29  -x 234 -y 148 -Z 0 -z 20  -v circle -c black
n -t * -s 30  -x 138 -y 235 -Z 0 -z 20  -v circle -c black
n -t * -s 31  -x 246 -y 8 -Z 0 -z 20  -v circle -c black
n -t * -s 32  -x 4 -y 132 -Z 0 -z 20  -v circle -c black
n -t * -s 33  -x 218 -y 237 -Z 0 -z 20  -v circle -c black
n -t * -s 34  -x 199 -y 202 -Z 0 -z 20  -v circle -c black
n -t * -s 35  -x 236 -y 128 -Z 0 -z 20  -v circle -c black
n -t * -s 36  -x 124 -y 241 -Z 0 -z 20  -v circle -c black
n -t * -s 37  -x 204 -y 66 -Z 0 -z 20  -v circle -c black
n -t * -s 38  -x 219 -y 207 -Z 0 -z 20  -v circle -c black
n -t * -s 39  -x 235 -y 216 -Z 0 -z 20  -v circle -c black
V -t * -v 1.0a5 -a 0
W -t * -x 250 -y 250
A -t * -n 1 -p 0 -o 0x7fffffff -c 30 -a 1
A -t * -h 1 -m 1073741823 -s 0
+ -t 0.036328457 -s 11 -d -1 -p message -e 32 -c 2 -a 0 -i 0 -k RTR 
- -t 0.036328457 -s 11 -d -1 -p message -e 32 -c 2 -a 0 -i 0 -k RTR
h -t 0.036328457 -s 11 -d -1 -p message -e 32 -c 2 -a 0 -i 0 -k RTR
r -t 0.038778573 -s 12 -d -1 -p message -e 32 -c 2 -a 0 -i 0 -k RTR
r -t 0.038778625 -s 13 -d -1 -p message -e 32 -c 2 -a 0 -i 0 -k RTR
r -t 0.038778637 -s 2 -d -1 -p message -e 32 -c 2 -a 0 -i 0 -k RTR
r -t 0.038778649 -s 7 -d -1 -p message -e 32 -c 2 -a 0 -i 0 -k RTR
r -t 0.038778652 -s 9 -d -1 -p message -e 32 -c 2 -a 0 -i 0 -k RTR
r -t 0.038778668 -s 8 -d -1 -p message -e 32 -c 2 -a 0 -i 0 -k RTR
r -t 0.038778696 -s 29 -d -1 -p message -e 32 -c 2 -a 0 -i 0 -k RTR
r -t 0.038778699 -s 34 -d -1 -p message -e 32 -c 2 -a 0 -i 0 -k RTR
r -t 0.038778703 -s 35 -d -1 -p message -e 32 -c 2 -a 0 -i 0 -k RTR
r -t 0.038778712 -s 17 -d -1 -p message -e 32 -c 2 -a 0 -i 0 -k RTR
r -t 0.038778715 -s 27 -d -1 -p message -e 32 -c 2 -a 0 -i 0 -k RTR
r -t 0.038778736 -s 37 -d -1 -p message -e 32 -c 2 -a 0 -i 0 -k RTR
r -t 0.038778751 -s 38 -d -1 -p message -e 32 -c 2 -a 0 -i 0 -k RTR
r -t 0.038778763 -s 0 -d -1 -p message -e 32 -c 2 -a 0 -i 0 -k RTR
r -t 0.038778769 -s 3 -d -1 -p message -e 32 -c 2 -a 0 -i 0 -k RTR
r -t 0.038778773 -s 1 -d -1 -p message -e 32 -c 2 -a 0 -i 0 -k RTR
r -t 0.038778777 -s 5 -d -1 -p message -e 32 -c 2 -a 0 -i 0 -k RTR
r -t 0.038778788 -s 30 -d -1 -p message -e 32 -c 2 -a 0 -i 0 -k RTR
r -t 0.038778809 -s 39 -d -1 -p message -e 32 -c 2 -a 0 -i 0 -k RTR
r -t 0.038778821 -s 36 -d -1 -p message -e 32 -c 2 -a 0 -i 0 -k RTR
r -t 0.038778832 -s 33 -d -1 -p message -e 32 -c 2 -a 0 -i 0 -k RTR
r -t 0.038778839 -s 14 -d -1 -p message -e 32 -c 2 -a 0 -i 0 -k RTR
r -t 0.038778859 -s 21 -d -1 -p message -e 32 -c 2 -a 0 -i 0 -k RTR
r -t 0.038778866 -s 20 -d -1 -p message -e 32 -c 2 -a 0 -i 0 -k RTR
r -t 0.038778879 -s 24 -d -1 -p message -e 32 -c 2 -a 0 -i 0 -k RTR
r -t 0.038778881 -s 16 -d -1 -p message -e 32 -c 2 -a 0 -i 0 -k RTR
r -t 0.038778910 -s 15 -d -1 -p message -e 32 -c 2 -a 0 -i 0 -k RTR
r -t 0.038778927 -s 18 -d -1 -p message -e 32 -c 2 -a 0 -i 0 -k RTR
r -t 0.038778939 -s 26 -d -1 -p message -e 32 -c 2 -a 0 -i 0 -k RTR
r -t 0.038778949 -s 4 -d -1 -p message -e 32 -c 2 -a 0 -i 0 -k RTR
r -t 0.038778960 -s 23 -d -1 -p message -e 32 -c 2 -a 0 -i 0 -k RTR
r -t 0.038778974 -s 31 -d -1 -p message -e 32 -c 2 -a 0 -i 0 -k RTR
r -t 0.038778977 -s 19 -d -1 -p message -e 32 -c 2 -a 0 -i 0 -k RTR
r -t 0.038778984 -s 6 -d -1 -p message -e 32 -c 2 -a 0 -i 0 -k RTR
r -t 0.038778988 -s 32 -d -1 -p message -e 32 -c 2 -a 0 -i 0 -k RTR
r -t 0.038778988 -s 22 -d -1 -p message -e 32 -c 2 -a 0 -i 0 -k RTR
r -t 0.038779033 -s 28 -d -1 -p message -e 32 -c 2 -a 0 -i 0 -k RTR
r -t 0.038779037 -s 10 -d -1 -p message -e 32 -c 2 -a 0 -i 0 -k RTR
r -t 0.038779053 -s 25 -d -1 -p message -e 32 -c 2 -a 0 -i 0 -k RTR
+ -t 0.073282045 -s 4 -d -1 -p message -e 32 -c 2 -a 0 -i 1 -k RTR 
- -t 0.073282045 -s 4 -d -1 -p message -e 32 -c 2 -a 0 -i 1 -k RTR
h -t 0.073282045 -s 4 -d -1 -p message -e 32 -c 2 -a 0 -i 1 -k RTR
r -t 0.076692073 -s 18 -d -1 -p message -e 32 -c 2 -a 0 -i 1 -k RTR
r -t 0.076692087 -s 15 -d -1 -p message -e 32 -c 2 -a 0 -i 1 -k RTR
r -t 0.076692120 -s 24 -d -1 -p message -e 32 -c 2 -a 0 -i 1 -k RTR
r -t 0.076692130 -s 28 -d -1 -p message -e 32 -c 2 -a 0 -i 1 -k RTR
r -t 0.076692195 -s 25 -d -1 -p message -e 32 -c 2 -a 0 -i 1 -k RTR
r -t 0.076692222 -s 20 -d -1 -p message -e 32 -c 2 -a 0 -i 1 -k RTR
r -t 0.076692283 -s 21 -d -1 -p message -e 32 -c 2 -a 0 -i 1 -k RTR
r -t 0.076692284 -s 27 -d -1 -p message -e 32 -c 2 -a 0 -i 1 -k RTR
r -t 0.076692343 -s 23 -d -1 -p message -e 32 -c 2 -a 0 -i 1 -k RTR
r -t 0.076692343 -s 14 -d -1 -p message -e 32 -c 2 -a 0 -i 1 -k RTR
r -t 0.076692362 -s 3 -d -1 -p message -e 32 -c 2 -a 0 -i 1 -k RTR
r -t 0.076692386 -s 26 -d -1 -p message -e 32 -c 2 -a 0 -i 1 -k RTR
r -t 0.076692453 -s 32 -d -1 -p message -e 32 -c 2 -a 0 -i 1 -k RTR
r -t 0.076692457 -s 6 -d -1 -p message -e 32 -c 2 -a 0 -i 1 -k RTR
r -t 0.076692459 -s 0 -d -1 -p message -e 32 -c 2 -a 0 -i 1 -k RTR
r -t 0.076692476 -s 2 -d -1 -p message -e 32 -c 2 -a 0 -i 1 -k RTR
r -t 0.076692492 -s 5 -d -1 -p message -e 32 -c 2 -a 0 -i 1 -k RTR
r -t 0.076692520 -s 37 -d -1 -p message -e 32 -c 2 -a 0 -i 1 -k RTR
r -t 0.076692537 -s 11 -d -1 -p message -e 32 -c 2 -a 0 -i 1 -k RTR
r -t 0.076692551 -s 17 -d -1 -p message -e 32 -c 2 -a 0 -i 1 -k RTR
r -t 0.076692602 -s 12 -d -1 -p message -e 32 -c 2 -a 0 -i 1 -k RTR
r -t 0.076692630 -s 19 -d -1 -p message -e 32 -c 2 -a 0 -i 1 -k RTR
r -t 0.076692645 -s 31 -d -1 -p message -e 32 -c 2 -a 0 -i 1 -k RTR
r -t 0.076692680 -s 8 -d -1 -p message -e 32 -c 2 -a 0 -i 1 -k RTR
r -t 0.076692701 -s 35 -d -1 -p message -e 32 -c 2 -a 0 -i 1 -k RTR
r -t 0.076692704 -s 13 -d -1 -p message -e 32 -c 2 -a 0 -i 1 -k RTR
r -t 0.076692717 -s 7 -d -1 -p message -e 32 -c 2 -a 0 -i 1 -k RTR
r -t 0.076692731 -s 9 -d -1 -p message -e 32 -c 2 -a 0 -i 1 -k RTR
r -t 0.076692732 -s 29 -d -1 -p message -e 32 -c 2 -a 0 -i 1 -k RTR
r -t 0.076692746 -s 22 -d -1 -p message -e 32 -c 2 -a 0 -i 1 -k RTR
r -t 0.076692776 -s 34 -d -1 -p message -e 32 -c 2 -a 0 -i 1 -k RTR
r -t 0.076692778 -s 30 -d -1 -p message -e 32 -c 2 -a 0 -i 1 -k RTR
r -t 0.076692783 -s 36 -d -1 -p message -e 32 -c 2 -a 0 -i 1 -k RTR
r -t 0.076692785 -s 10 -d -1 -p message -e 32 -c 2 -a 0 -i 1 -k RTR
r -t 0.076692830 -s 38 -d -1 -p message -e 32 -c 2 -a 0 -i 1 -k RTR
r -t 0.076692847 -s 1 -d -1 -p message -e 32 -c 2 -a 0 -i 1 -k RTR
+ -t 0.088584275 -s 31 -d -1 -p message -e 32 -c 2 -a 0 -i 2 -k RTR 
- -t 0.088584275 -s 31 -d -1 -p message -e 32 -c 2 -a 0 -i 2 -k RTR
h -t 0.088584275 -s 31 -d -1 -p message -e 32 -c 2 -a 0 -i 2 -k RTR
r -t 0.092634296 -s 19 -d -1 -p message -e 32 -c 2 -a 0 -i 2 -k RTR
r -t 0.092634485 -s 5 -d -1 -p message -e 32 -c 2 -a 0 -i 2 -k RTR
r -t 0.092634513 -s 37 -d -1 -p message -e 32 -c 2 -a 0 -i 2 -k RTR
r -t 0.092634618 -s 2 -d -1 -p message -e 32 -c 2 -a 0 -i 2 -k RTR
r -t 0.092634637 -s 21 -d -1 -p message -e 32 -c 2 -a 0 -i 2 -k RTR
r -t 0.092634676 -s 35 -d -1 -p message -e 32 -c 2 -a 0 -i 2 -k RTR
r -t 0.092634693 -s 8 -d -1 -p message -e 32 -c 2 -a 0 -i 2 -k RTR
r -t 0.092634698 -s 20 -d -1 -p message -e 32 -c 2 -a 0 -i 2 -k RTR
r -t 0.092634719 -s 12 -d -1 -p message -e 32 -c 2 -a 0 -i 2 -k RTR
r -t 0.092634743 -s 29 -d -1 -p message -e 32 -c 2 -a 0 -i 2 -k RTR
r -t 0.092634746 -s 27 -d -1 -p message -e 32 -c 2 -a 0 -i 2 -k RTR
r -t 0.092634792 -s 11 -d -1 -p message -e 32 -c 2 -a 0 -i 2 -k RTR
r -t 0.092634805 -s 7 -d -1 -p message -e 32 -c 2 -a 0 -i 2 -k RTR
r -t 0.092634849 -s 18 -d -1 -p message -e 32 -c 2 -a 0 -i 2 -k RTR
r -t 0.092634860 -s 24 -d -1 -p message -e 32 -c 2 -a 0 -i 2 -k RTR
r -t 0.092634867 -s 15 -d -1 -p message -e 32 -c 2 -a 0 -i 2 -k RTR
r -t 0.092634875 -s 4 -d -1 -p message -e 32 -c 2 -a 0 -i 2 -k RTR
r -t 0.092634876 -s 13 -d -1 -p message -e 32 -c 2 -a 0 -i 2 -k RTR
r -t 0.092634885 -s 9 -d -1 -p message -e 32 -c 2 -a 0 -i 2 -k RTR
r -t 0.092634892 -s 1 -d -1 -p message -e 32 -c 2 -a 0 -i 2 -k RTR
r -t 0.092634935 -s 28 -d -1 -p message -e 32 -c 2 -a 0 -i 2 -k RTR
r -t 0.092634940 -s 34 -d -1 -p message -e 32 -c 2 -a 0 -i 2 -k RTR
r -t 0.092634944 -s 38 -d -1 -p message -e 32 -c 2 -a 0 -i 2 -k RTR
r -t 0.092634969 -s 39 -d -1 -p message -e 32 -c 2 -a 0 -i 2 -k RTR
r -t 0.092634971 -s 3 -d -1 -p message -e 32 -c 2 -a 0 -i 2 -k RTR
r -t 0.092635016 -s 14 -d -1 -p message -e 32 -c 2 -a 0 -i 2 -k RTR
r -t 0.092635025 -s 25 -d -1 -p message -e 32 -c 2 -a 0 -i 2 -k RTR
r -t 0.092635025 -s 17 -d -1 -p message -e 32 -c 2 -a 0 -i 2 -k RTR
r -t 0.092635025 -s 0 -d -1 -p message -e 32 -c 2 -a 0 -i 2 -k RTR
r -t 0.092635044 -s 33 -d -1 -p message -e 32 -c 2 -a 0 -i 2 -k RTR
r -t 0.092635084 -s 16 -d -1 -p message -e 32 -c 2 -a 0 -i 2 -k RTR
r -t 0.092635099 -s 23 -d -1 -p message -e 32 -c 2 -a 0 -i 2 -k RTR
+ -t 0.126846076 -s 36 -d -1 -p message -e 32 -c 2 -a 0 -i 3 -k RTR 
- -t 0.126846076 -s 36 -d -1 -p message -e 32 -c 2 -a 0 -i 3 -k RTR
h -t 0.126846076 -s 36 -d -1 -p message -e 32 -c 2 -a 0 -i 3 -k RTR
+ -t 0.129642904 -s 28 -d -1 -p message -e 32 -c 2 -a 0 -i 4 -k RTR 
- -t 0.129642904 -s 28 -d -1 -p message -e 32 -c 2 -a 0 -i 4 -k RTR
h -t 0.129642904 -s 28 -d -1 -p message -e 32 -c 2 -a 0 -i 4 -k RTR
r -t 0.130896127 -s 30 -d -1 -p message -e 32 -c 2 -a 0 -i 3 -k RTR
r -t 0.130896312 -s 17 -d -1 -p message -e 32 -c 2 -a 0 -i 3 -k RTR
r -t 0.130896358 -s 34 -d -1 -p message -e 32 -c 2 -a 0 -i 3 -k RTR
r -t 0.130896370 -s 22 -d -1 -p message -e 32 -c 2 -a 0 -i 3 -k RTR
r -t 0.130896380 -s 13 -d -1 -p message -e 32 -c 2 -a 0 -i 3 -k RTR
r -t 0.130896388 -s 9 -d -1 -p message -e 32 -c 2 -a 0 -i 3 -k RTR
r -t 0.130896389 -s 33 -d -1 -p message -e 32 -c 2 -a 0 -i 3 -k RTR
r -t 0.130896406 -s 10 -d -1 -p message -e 32 -c 2 -a 0 -i 3 -k RTR
r -t 0.130896412 -s 38 -d -1 -p message -e 32 -c 2 -a 0 -i 3 -k RTR
r -t 0.130896414 -s 16 -d -1 -p message -e 32 -c 2 -a 0 -i 3 -k RTR
r -t 0.130896422 -s 0 -d -1 -p message -e 32 -c 2 -a 0 -i 3 -k RTR
r -t 0.130896440 -s 11 -d -1 -p message -e 32 -c 2 -a 0 -i 3 -k RTR
r -t 0.130896455 -s 39 -d -1 -p message -e 32 -c 2 -a 0 -i 3 -k RTR
r -t 0.130896473 -s 7 -d -1 -p message -e 32 -c 2 -a 0 -i 3 -k RTR
r -t 0.130896497 -s 1 -d -1 -p message -e 32 -c 2 -a 0 -i 3 -k RTR
r -t 0.130896510 -s 3 -d -1 -p message -e 32 -c 2 -a 0 -i 3 -k RTR
r -t 0.130896513 -s 12 -d -1 -p message -e 32 -c 2 -a 0 -i 3 -k RTR
r -t 0.130896556 -s 29 -d -1 -p message -e 32 -c 2 -a 0 -i 3 -k RTR
r -t 0.130896561 -s 14 -d -1 -p message -e 32 -c 2 -a 0 -i 3 -k RTR
r -t 0.130896573 -s 8 -d -1 -p message -e 32 -c 2 -a 0 -i 3 -k RTR
r -t 0.130896606 -s 35 -d -1 -p message -e 32 -c 2 -a 0 -i 3 -k RTR
r -t 0.130896609 -s 6 -d -1 -p message -e 32 -c 2 -a 0 -i 3 -k RTR
r -t 0.130896613 -s 26 -d -1 -p message -e 32 -c 2 -a 0 -i 3 -k RTR
r -t 0.130896616 -s 32 -d -1 -p message -e 32 -c 2 -a 0 -i 3 -k RTR
r -t 0.130896620 -s 2 -d -1 -p message -e 32 -c 2 -a 0 -i 3 -k RTR
r -t 0.130896633 -s 27 -d -1 -p message -e 32 -c 2 -a 0 -i 3 -k RTR
r -t 0.130896663 -s 23 -d -1 -p message -e 32 -c 2 -a 0 -i 3 -k RTR
r -t 0.130896717 -s 37 -d -1 -p message -e 32 -c 2 -a 0 -i 3 -k RTR
r -t 0.130896740 -s 24 -d -1 -p message -e 32 -c 2 -a 0 -i 3 -k RTR
r -t 0.130896760 -s 5 -d -1 -p message -e 32 -c 2 -a 0 -i 3 -k RTR
r -t 0.130896772 -s 15 -d -1 -p message -e 32 -c 2 -a 0 -i 3 -k RTR
r -t 0.130896799 -s 20 -d -1 -p message -e 32 -c 2 -a 0 -i 3 -k RTR
r -t 0.130896801 -s 18 -d -1 -p message -e 32 -c 2 -a 0 -i 3 -k RTR
r -t 0.130896811 -s 21 -d -1 -p message -e 32 -c 2 -a 0 -i 3 -k RTR
r -t 0.130896814 -s 4 -d -1 -p message -e 32 -c 2 -a 0 -i 3 -k RTR
r -t 0.130896860 -s 25 -d -1 -p message -e 32 -c 2 -a 0 -i 3 -k RTR
r -t 0.130896886 -s 28 -d -1 -p message -e 32 -c 2 -a 0 -i 3 -k RTR
r -t 0.133372989 -s 4 -d -1 -p message -e 32 -c 2 -a 0 -i 4 -k RTR
r -t 0.133373012 -s 25 -d -1 -p message -e 32 -c 2 -a 0 -i 4 -k RTR
r -t 0.133373014 -s 18 -d -1 -p message -e 32 -c 2 -a 0 -i 4 -k RTR
r -t 0.133373028 -s 15 -d -1 -p message -e 32 -c 2 -a 0 -i 4 -k RTR
r -t 0.133373060 -s 24 -d -1 -p message -e 32 -c 2 -a 0 -i 4 -k RTR
r -t 0.133373149 -s 20 -d -1 -p message -e 32 -c 2 -a 0 -i 4 -k RTR
r -t 0.133373207 -s 21 -d -1 -p message -e 32 -c 2 -a 0 -i 4 -k RTR
r -t 0.133373225 -s 23 -d -1 -p message -e 32 -c 2 -a 0 -i 4 -k RTR
r -t 0.133373228 -s 27 -d -1 -p message -e 32 -c 2 -a 0 -i 4 -k RTR
r -t 0.133373254 -s 14 -d -1 -p message -e 32 -c 2 -a 0 -i 4 -k RTR
r -t 0.133373276 -s 26 -d -1 -p message -e 32 -c 2 -a 0 -i 4 -k RTR
r -t 0.133373285 -s 3 -d -1 -p message -e 32 -c 2 -a 0 -i 4 -k RTR
r -t 0.133373337 -s 32 -d -1 -p message -e 32 -c 2 -a 0 -i 4 -k RTR
r -t 0.133373342 -s 6 -d -1 -p message -e 32 -c 2 -a 0 -i 4 -k RTR
r -t 0.133373381 -s 0 -d -1 -p message -e 32 -c 2 -a 0 -i 4 -k RTR
r -t 0.133373418 -s 2 -d -1 -p message -e 32 -c 2 -a 0 -i 4 -k RTR
r -t 0.133373425 -s 5 -d -1 -p message -e 32 -c 2 -a 0 -i 4 -k RTR
r -t 0.133373457 -s 37 -d -1 -p message -e 32 -c 2 -a 0 -i 4 -k RTR
r -t 0.133373480 -s 17 -d -1 -p message -e 32 -c 2 -a 0 -i 4 -k RTR
r -t 0.133373480 -s 11 -d -1 -p message -e 32 -c 2 -a 0 -i 4 -k RTR
r -t 0.133373546 -s 12 -d -1 -p message -e 32 -c 2 -a 0 -i 4 -k RTR
r -t 0.133373548 -s 19 -d -1 -p message -e 32 -c 2 -a 0 -i 4 -k RTR
r -t 0.133373564 -s 31 -d -1 -p message -e 32 -c 2 -a 0 -i 4 -k RTR
r -t 0.133373624 -s 8 -d -1 -p message -e 32 -c 2 -a 0 -i 4 -k RTR
r -t 0.133373644 -s 35 -d -1 -p message -e 32 -c 2 -a 0 -i 4 -k RTR
r -t 0.133373647 -s 13 -d -1 -p message -e 32 -c 2 -a 0 -i 4 -k RTR
r -t 0.133373655 -s 22 -d -1 -p message -e 32 -c 2 -a 0 -i 4 -k RTR
r -t 0.133373662 -s 7 -d -1 -p message -e 32 -c 2 -a 0 -i 4 -k RTR
r -t 0.133373675 -s 9 -d -1 -p message -e 32 -c 2 -a 0 -i 4 -k RTR
r -t 0.133373676 -s 29 -d -1 -p message -e 32 -c 2 -a 0 -i 4 -k RTR
r -t 0.133373691 -s 10 -d -1 -p message -e 32 -c 2 -a 0 -i 4 -k RTR
r -t 0.133373712 -s 30 -d -1 -p message -e 32 -c 2 -a 0 -i 4 -k RTR
r -t 0.133373715 -s 36 -d -1 -p message -e 32 -c 2 -a 0 -i 4 -k RTR
r -t 0.133373718 -s 34 -d -1 -p message -e 32 -c 2 -a 0 -i 4 -k RTR
+ -t 0.247164037 -s 15 -d -1 -p message -e 32 -c 2 -a 0 -i 5 -k RTR 
- -t 0.247164037 -s 15 -d -1 -p message -e 32 -c 2 -a 0 -i 5 -k RTR
h -t 0.247164037 -s 15 -d -1 -p message -e 32 -c 2 -a 0 -i 5 -k RTR
r -t 0.250574070 -s 24 -d -1 -p message -e 32 -c 2 -a 0 -i 5 -k RTR
r -t 0.250574073 -s 18 -d -1 -p message -e 32 -c 2 -a 0 -i 5 -k RTR
r -t 0.250574079 -s 4 -d -1 -p message -e 32 -c 2 -a 0 -i 5 -k RTR
r -t 0.250574160 -s 28 -d -1 -p message -e 32 -c 2 -a 0 -i 5 -k RTR
r -t 0.250574203 -s 25 -d -1 -p message -e 32 -c 2 -a 0 -i 5 -k RTR
r -t 0.250574208 -s 20 -d -1 -p message -e 32 -c 2 -a 0 -i 5 -k RTR
r -t 0.250574240 -s 27 -d -1 -p message -e 32 -c 2 -a 0 -i 5 -k RTR
r -t 0.250574268 -s 21 -d -1 -p message -e 32 -c 2 -a 0 -i 5 -k RTR
r -t 0.250574299 -s 14 -d -1 -p message -e 32 -c 2 -a 0 -i 5 -k RTR
r -t 0.250574311 -s 23 -d -1 -p message -e 32 -c 2 -a 0 -i 5 -k RTR
r -t 0.250574313 -s 3 -d -1 -p message -e 32 -c 2 -a 0 -i 5 -k RTR
r -t 0.250574350 -s 26 -d -1 -p message -e 32 -c 2 -a 0 -i 5 -k RTR
r -t 0.250574410 -s 0 -d -1 -p message -e 32 -c 2 -a 0 -i 5 -k RTR
r -t 0.250574419 -s 32 -d -1 -p message -e 32 -c 2 -a 0 -i 5 -k RTR
r -t 0.250574422 -s 6 -d -1 -p message -e 32 -c 2 -a 0 -i 5 -k RTR
r -t 0.250574438 -s 2 -d -1 -p message -e 32 -c 2 -a 0 -i 5 -k RTR
r -t 0.250574465 -s 5 -d -1 -p message -e 32 -c 2 -a 0 -i 5 -k RTR
r -t 0.250574489 -s 37 -d -1 -p message -e 32 -c 2 -a 0 -i 5 -k RTR
r -t 0.250574490 -s 11 -d -1 -p message -e 32 -c 2 -a 0 -i 5 -k RTR
r -t 0.250574501 -s 17 -d -1 -p message -e 32 -c 2 -a 0 -i 5 -k RTR
r -t 0.250574559 -s 12 -d -1 -p message -e 32 -c 2 -a 0 -i 5 -k RTR
r -t 0.250574615 -s 19 -d -1 -p message -e 32 -c 2 -a 0 -i 5 -k RTR
r -t 0.250574629 -s 31 -d -1 -p message -e 32 -c 2 -a 0 -i 5 -k RTR
r -t 0.250574639 -s 8 -d -1 -p message -e 32 -c 2 -a 0 -i 5 -k RTR
r -t 0.250574656 -s 13 -d -1 -p message -e 32 -c 2 -a 0 -i 5 -k RTR
r -t 0.250574662 -s 35 -d -1 -p message -e 32 -c 2 -a 0 -i 5 -k RTR
r -t 0.250574672 -s 7 -d -1 -p message -e 32 -c 2 -a 0 -i 5 -k RTR
r -t 0.250574684 -s 9 -d -1 -p message -e 32 -c 2 -a 0 -i 5 -k RTR
r -t 0.250574690 -s 29 -d -1 -p message -e 32 -c 2 -a 0 -i 5 -k RTR
r -t 0.250574700 -s 22 -d -1 -p message -e 32 -c 2 -a 0 -i 5 -k RTR
r -t 0.250574727 -s 30 -d -1 -p message -e 32 -c 2 -a 0 -i 5 -k RTR
r -t 0.250574728 -s 34 -d -1 -p message -e 32 -c 2 -a 0 -i 5 -k RTR
r -t 0.250574733 -s 36 -d -1 -p message -e 32 -c 2 -a 0 -i 5 -k RTR
r -t 0.250574740 -s 10 -d -1 -p message -e 32 -c 2 -a 0 -i 5 -k RTR
r -t 0.250574783 -s 38 -d -1 -p message -e 32 -c 2 -a 0 -i 5 -k RTR
r -t 0.250574801 -s 1 -d -1 -p message -e 32 -c 2 -a 0 -i 5 -k RTR
r -t 0.250574841 -s 39 -d -1 -p message -e 32 -c 2 -a 0 -i 5 -k RTR
r -t 0.250574859 -s 33 -d -1 -p message -e 32 -c 2 -a 0 -i 5 -k RTR
+ -t 0.321822596 -s 26 -d -1 -p message -e 32 -c 2 -a 0 -i 6 -k RTR 
- -t 0.321822596 -s 26 -d -1 -p message -e 32 -c 2 -a 0 -i 6 -k RTR
h -t 0.321822596 -s 26 -d -1 -p message -e 32 -c 2 -a 0 -i 6 -k RTR
r -t 0.324272654 -s 23 -d -1 -p message -e 32 -c 2 -a 0 -i 6 -k RTR
r -t 0.324272667 -s 32 -d -1 -p message -e 32 -c 2 -a 0 -i 6 -k RTR
r -t 0.324272670 -s 6 -d -1 -p message -e 32 -c 2 -a 0 -i 6 -k RTR
r -t 0.324272700 -s 14 -d -1 -p message -e 32 -c 2 -a 0 -i 6 -k RTR
r -t 0.324272767 -s 3 -d -1 -p message -e 32 -c 2 -a 0 -i 6 -k RTR
r -t 0.324272802 -s 0 -d -1 -p message -e 32 -c 2 -a 0 -i 6 -k RTR
r -t 0.324272893 -s 25 -d -1 -p message -e 32 -c 2 -a 0 -i 6 -k RTR
r -t 0.324272893 -s 24 -d -1 -p message -e 32 -c 2 -a 0 -i 6 -k RTR
r -t 0.324272910 -s 15 -d -1 -p message -e 32 -c 2 -a 0 -i 6 -k RTR
r -t 0.324272915 -s 17 -d -1 -p message -e 32 -c 2 -a 0 -i 6 -k RTR
r -t 0.324272938 -s 4 -d -1 -p message -e 32 -c 2 -a 0 -i 6 -k RTR
r -t 0.324272945 -s 18 -d -1 -p message -e 32 -c 2 -a 0 -i 6 -k RTR
r -t 0.324272964 -s 27 -d -1 -p message -e 32 -c 2 -a 0 -i 6 -k RTR
r -t 0.324272968 -s 28 -d -1 -p message -e 32 -c 2 -a 0 -i 6 -k RTR
r -t 0.324272990 -s 22 -d -1 -p message -e 32 -c 2 -a 0 -i 6 -k RTR
r -t 0.324273020 -s 10 -d -1 -p message -e 32 -c 2 -a 0 -i 6 -k RTR
r -t 0.324273054 -s 20 -d -1 -p message -e 32 -c 2 -a 0 -i 6 -k RTR
r -t 0.324273078 -s 11 -d -1 -p message -e 32 -c 2 -a 0 -i 6 -k RTR
r -t 0.324273106 -s 21 -d -1 -p message -e 32 -c 2 -a 0 -i 6 -k RTR
r -t 0.324273133 -s 36 -d -1 -p message -e 32 -c 2 -a 0 -i 6 -k RTR
r -t 0.324273142 -s 2 -d -1 -p message -e 32 -c 2 -a 0 -i 6 -k RTR
r -t 0.324273150 -s 30 -d -1 -p message -e 32 -c 2 -a 0 -i 6 -k RTR
r -t 0.324273188 -s 12 -d -1 -p message -e 32 -c 2 -a 0 -i 6 -k RTR
r -t 0.324273206 -s 13 -d -1 -p message -e 32 -c 2 -a 0 -i 6 -k RTR
r -t 0.324273233 -s 9 -d -1 -p message -e 32 -c 2 -a 0 -i 6 -k RTR
r -t 0.324273234 -s 37 -d -1 -p message -e 32 -c 2 -a 0 -i 6 -k RTR
r -t 0.324273235 -s 5 -d -1 -p message -e 32 -c 2 -a 0 -i 6 -k RTR
r -t 0.324273256 -s 34 -d -1 -p message -e 32 -c 2 -a 0 -i 6 -k RTR
r -t 0.324273264 -s 7 -d -1 -p message -e 32 -c 2 -a 0 -i 6 -k RTR
r -t 0.324273285 -s 8 -d -1 -p message -e 32 -c 2 -a 0 -i 6 -k RTR
r -t 0.324273317 -s 29 -d -1 -p message -e 32 -c 2 -a 0 -i 6 -k RTR
r -t 0.324273317 -s 35 -d -1 -p message -e 32 -c 2 -a 0 -i 6 -k RTR
r -t 0.324273323 -s 38 -d -1 -p message -e 32 -c 2 -a 0 -i 6 -k RTR
r -t 0.324273366 -s 33 -d -1 -p message -e 32 -c 2 -a 0 -i 6 -k RTR
r -t 0.324273374 -s 1 -d -1 -p message -e 32 -c 2 -a 0 -i 6 -k RTR
r -t 0.324273384 -s 39 -d -1 -p message -e 32 -c 2 -a 0 -i 6 -k RTR
r -t 0.324273409 -s 16 -d -1 -p message -e 32 -c 2 -a 0 -i 6 -k RTR
r -t 0.324273425 -s 19 -d -1 -p message -e 32 -c 2 -a 0 -i 6 -k RTR
+ -t 0.349191800 -s 3 -d -1 -p message -e 32 -c 2 -a 0 -i 7 -k RTR 
- -t 0.349191800 -s 3 -d -1 -p message -e 32 -c 2 -a 0 -i 7 -k RTR
h -t 0.349191800 -s 3 -d -1 -p message -e 32 -c 2 -a 0 -i 7 -k RTR
r -t 0.352921871 -s 14 -d -1 -p message -e 32 -c 2 -a 0 -i 7 -k RTR
r -t 0.352921897 -s 0 -d -1 -p message -e 32 -c 2 -a 0 -i 7 -k RTR
r -t 0.352921971 -s 26 -d -1 -p message -e 32 -c 2 -a 0 -i 7 -k RTR
r -t 0.352921993 -s 23 -d -1 -p message -e 32 -c 2 -a 0 -i 7 -k RTR
r -t 0.352921999 -s 17 -d -1 -p message -e 32 -c 2 -a 0 -i 7 -k RTR
r -t 0.352922024 -s 6 -d -1 -p message -e 32 -c 2 -a 0 -i 7 -k RTR
r -t 0.352922026 -s 32 -d -1 -p message -e 32 -c 2 -a 0 -i 7 -k RTR
r -t 0.352922031 -s 27 -d -1 -p message -e 32 -c 2 -a 0 -i 7 -k RTR
r -t 0.352922047 -s 24 -d -1 -p message -e 32 -c 2 -a 0 -i 7 -k RTR
r -t 0.352922077 -s 15 -d -1 -p message -e 32 -c 2 -a 0 -i 7 -k RTR
r -t 0.352922111 -s 18 -d -1 -p message -e 32 -c 2 -a 0 -i 7 -k RTR
r -t 0.352922112 -s 11 -d -1 -p message -e 32 -c 2 -a 0 -i 7 -k RTR
r -t 0.352922117 -s 4 -d -1 -p message -e 32 -c 2 -a 0 -i 7 -k RTR
r -t 0.352922151 -s 25 -d -1 -p message -e 32 -c 2 -a 0 -i 7 -k RTR
r -t 0.352922166 -s 20 -d -1 -p message -e 32 -c 2 -a 0 -i 7 -k RTR
r -t 0.352922181 -s 28 -d -1 -p message -e 32 -c 2 -a 0 -i 7 -k RTR
r -t 0.352922184 -s 2 -d -1 -p message -e 32 -c 2 -a 0 -i 7 -k RTR
r -t 0.352922195 -s 22 -d -1 -p message -e 32 -c 2 -a 0 -i 7 -k RTR
r -t 0.352922204 -s 21 -d -1 -p message -e 32 -c 2 -a 0 -i 7 -k RTR
r -t 0.352922222 -s 12 -d -1 -p message -e 32 -c 2 -a 0 -i 7 -k RTR
r -t 0.352922235 -s 36 -d -1 -p message -e 32 -c 2 -a 0 -i 7 -k RTR
r -t 0.352922238 -s 10 -d -1 -p message -e 32 -c 2 -a 0 -i 7 -k RTR
r -t 0.352922238 -s 30 -d -1 -p message -e 32 -c 2 -a 0 -i 7 -k RTR
r -t 0.352922248 -s 13 -d -1 -p message -e 32 -c 2 -a 0 -i 7 -k RTR
r -t 0.352922276 -s 9 -d -1 -p message -e 32 -c 2 -a 0 -i 7 -k RTR
r -t 0.352922281 -s 37 -d -1 -p message -e 32 -c 2 -a 0 -i 7 -k RTR
r -t 0.352922290 -s 5 -d -1 -p message -e 32 -c 2 -a 0 -i 7 -k RTR
r -t 0.352922300 -s 7 -d -1 -p message -e 32 -c 2 -a 0 -i 7 -k RTR
r -t 0.352922303 -s 34 -d -1 -p message -e 32 -c 2 -a 0 -i 7 -k RTR
r -t 0.352922318 -s 8 -d -1 -p message -e 32 -c 2 -a 0 -i 7 -k RTR
r -t 0.352922350 -s 29 -d -1 -p message -e 32 -c 2 -a 0 -i 7 -k RTR
r -t 0.352922351 -s 35 -d -1 -p message -e 32 -c 2 -a 0 -i 7 -k RTR
r -t 0.352922369 -s 38 -d -1 -p message -e 32 -c 2 -a 0 -i 7 -k RTR
r -t 0.352922414 -s 1 -d -1 -p message -e 32 -c 2 -a 0 -i 7 -k RTR
r -t 0.352922422 -s 33 -d -1 -p message -e 32 -c 2 -a 0 -i 7 -k RTR
r -t 0.352922430 -s 39 -d -1 -p message -e 32 -c 2 -a 0 -i 7 -k RTR
r -t 0.352922468 -s 16 -d -1 -p message -e 32 -c 2 -a 0 -i 7 -k RTR
r -t 0.352922490 -s 19 -d -1 -p message -e 32 -c 2 -a 0 -i 7 -k RTR
r -t 0.352922496 -s 31 -d -1 -p message -e 32 -c 2 -a 0 -i 7 -k RTR
+ -t 0.356017125 -s 29 -d -1 -p message -e 32 -c 2 -a 0 -i 8 -k RTR 
- -t 0.356017125 -s 29 -d -1 -p message -e 32 -c 2 -a 0 -i 8 -k RTR
h -t 0.356017125 -s 29 -d -1 -p message -e 32 -c 2 -a 0 -i 8 -k RTR
r -t 0.359427185 -s 8 -d -1 -p message -e 32 -c 2 -a 0 -i 8 -k RTR
r -t 0.359427192 -s 35 -d -1 -p message -e 32 -c 2 -a 0 -i 8 -k RTR
r -t 0.359427208 -s 7 -d -1 -p message -e 32 -c 2 -a 0 -i 8 -k RTR
r -t 0.359427259 -s 12 -d -1 -p message -e 32 -c 2 -a 0 -i 8 -k RTR
r -t 0.359427277 -s 1 -d -1 -p message -e 32 -c 2 -a 0 -i 8 -k RTR
r -t 0.359427295 -s 9 -d -1 -p message -e 32 -c 2 -a 0 -i 8 -k RTR
r -t 0.359427301 -s 13 -d -1 -p message -e 32 -c 2 -a 0 -i 8 -k RTR
r -t 0.359427328 -s 38 -d -1 -p message -e 32 -c 2 -a 0 -i 8 -k RTR
r -t 0.359427339 -s 34 -d -1 -p message -e 32 -c 2 -a 0 -i 8 -k RTR
r -t 0.359427352 -s 39 -d -1 -p message -e 32 -c 2 -a 0 -i 8 -k RTR
r -t 0.359427363 -s 11 -d -1 -p message -e 32 -c 2 -a 0 -i 8 -k RTR
r -t 0.359427392 -s 2 -d -1 -p message -e 32 -c 2 -a 0 -i 8 -k RTR
r -t 0.359427416 -s 37 -d -1 -p message -e 32 -c 2 -a 0 -i 8 -k RTR
r -t 0.359427426 -s 33 -d -1 -p message -e 32 -c 2 -a 0 -i 8 -k RTR
r -t 0.359427466 -s 16 -d -1 -p message -e 32 -c 2 -a 0 -i 8 -k RTR
r -t 0.359427472 -s 5 -d -1 -p message -e 32 -c 2 -a 0 -i 8 -k RTR
r -t 0.359427557 -s 30 -d -1 -p message -e 32 -c 2 -a 0 -i 8 -k RTR
r -t 0.359427575 -s 27 -d -1 -p message -e 32 -c 2 -a 0 -i 8 -k RTR
r -t 0.359427593 -s 31 -d -1 -p message -e 32 -c 2 -a 0 -i 8 -k RTR
r -t 0.359427594 -s 17 -d -1 -p message -e 32 -c 2 -a 0 -i 8 -k RTR
r -t 0.359427605 -s 36 -d -1 -p message -e 32 -c 2 -a 0 -i 8 -k RTR
r -t 0.359427605 -s 19 -d -1 -p message -e 32 -c 2 -a 0 -i 8 -k RTR
r -t 0.359427656 -s 21 -d -1 -p message -e 32 -c 2 -a 0 -i 8 -k RTR
r -t 0.359427665 -s 0 -d -1 -p message -e 32 -c 2 -a 0 -i 8 -k RTR
r -t 0.359427675 -s 3 -d -1 -p message -e 32 -c 2 -a 0 -i 8 -k RTR
r -t 0.359427686 -s 20 -d -1 -p message -e 32 -c 2 -a 0 -i 8 -k RTR
r -t 0.359427745 -s 14 -d -1 -p message -e 32 -c 2 -a 0 -i 8 -k RTR
r -t 0.359427751 -s 24 -d -1 -p message -e 32 -c 2 -a 0 -i 8 -k RTR
r -t 0.359427779 -s 15 -d -1 -p message -e 32 -c 2 -a 0 -i 8 -k RTR
r -t 0.359427787 -s 18 -d -1 -p message -e 32 -c 2 -a 0 -i 8 -k RTR
r -t 0.359427812 -s 4 -d -1 -p message -e 32 -c 2 -a 0 -i 8 -k RTR
r -t 0.359427845 -s 26 -d -1 -p message -e 32 -c 2 -a 0 -i 8 -k RTR
r -t 0.359427846 -s 22 -d -1 -p message -e 32 -c 2 -a 0 -i 8 -k RTR
r -t 0.359427865 -s 23 -d -1 -p message -e 32 -c 2 -a 0 -i 8 -k RTR
r -t 0.359427890 -s 6 -d -1 -p message -e 32 -c 2 -a 0 -i 8 -k RTR
r -t 0.359427893 -s 10 -d -1 -p message -e 32 -c 2 -a 0 -i 8 -k RTR
r -t 0.359427893 -s 32 -d -1 -p message -e 32 -c 2 -a 0 -i 8 -k RTR
r -t 0.359427897 -s 28 -d -1 -p message -e 32 -c 2 -a 0 -i 8 -k RTR
r -t 0.359427935 -s 25 -d -1 -p message -e 32 -c 2 -a 0 -i 8 -k RTR
+ -t 0.421784672 -s 10 -d -1 -p message -e 32 -c 2 -a 0 -i 9 -k RTR 
- -t 0.421784672 -s 10 -d -1 -p message -e 32 -c 2 -a 0 -i 9 -k RTR
h -t 0.421784672 -s 10 -d -1 -p message -e 32 -c 2 -a 0 -i 9 -k RTR
r -t 0.425514722 -s 22 -d -1 -p message -e 32 -c 2 -a 0 -i 9 -k RTR
r -t 0.425515002 -s 17 -d -1 -p message -e 32 -c 2 -a 0 -i 9 -k RTR
r -t 0.425515002 -s 36 -d -1 -p message -e 32 -c 2 -a 0 -i 9 -k RTR
r -t 0.425515022 -s 0 -d -1 -p message -e 32 -c 2 -a 0 -i 9 -k RTR
r -t 0.425515048 -s 6 -d -1 -p message -e 32 -c 2 -a 0 -i 9 -k RTR
r -t 0.425515050 -s 30 -d -1 -p message -e 32 -c 2 -a 0 -i 9 -k RTR
r -t 0.425515055 -s 32 -d -1 -p message -e 32 -c 2 -a 0 -i 9 -k RTR
r -t 0.425515096 -s 26 -d -1 -p message -e 32 -c 2 -a 0 -i 9 -k RTR
r -t 0.425515110 -s 3 -d -1 -p message -e 32 -c 2 -a 0 -i 9 -k RTR
r -t 0.425515114 -s 14 -d -1 -p message -e 32 -c 2 -a 0 -i 9 -k RTR
r -t 0.425515153 -s 23 -d -1 -p message -e 32 -c 2 -a 0 -i 9 -k RTR
r -t 0.425515252 -s 11 -d -1 -p message -e 32 -c 2 -a 0 -i 9 -k RTR
r -t 0.425515269 -s 13 -d -1 -p message -e 32 -c 2 -a 0 -i 9 -k RTR
r -t 0.425515269 -s 34 -d -1 -p message -e 32 -c 2 -a 0 -i 9 -k RTR
r -t 0.425515285 -s 9 -d -1 -p message -e 32 -c 2 -a 0 -i 9 -k RTR
r -t 0.425515316 -s 33 -d -1 -p message -e 32 -c 2 -a 0 -i 9 -k RTR
r -t 0.425515326 -s 27 -d -1 -p message -e 32 -c 2 -a 0 -i 9 -k RTR
r -t 0.425515331 -s 38 -d -1 -p message -e 32 -c 2 -a 0 -i 9 -k RTR
r -t 0.425515339 -s 16 -d -1 -p message -e 32 -c 2 -a 0 -i 9 -k RTR
r -t 0.425515349 -s 24 -d -1 -p message -e 32 -c 2 -a 0 -i 9 -k RTR
r -t 0.425515358 -s 12 -d -1 -p message -e 32 -c 2 -a 0 -i 9 -k RTR
r -t 0.425515360 -s 7 -d -1 -p message -e 32 -c 2 -a 0 -i 9 -k RTR
r -t 0.425515376 -s 15 -d -1 -p message -e 32 -c 2 -a 0 -i 9 -k RTR
r -t 0.425515379 -s 39 -d -1 -p message -e 32 -c 2 -a 0 -i 9 -k RTR
r -t 0.425515392 -s 25 -d -1 -p message -e 32 -c 2 -a 0 -i 9 -k RTR
r -t 0.425515410 -s 2 -d -1 -p message -e 32 -c 2 -a 0 -i 9 -k RTR
r -t 0.425515411 -s 18 -d -1 -p message -e 32 -c 2 -a 0 -i 9 -k RTR
r -t 0.425515412 -s 4 -d -1 -p message -e 32 -c 2 -a 0 -i 9 -k RTR
r -t 0.425515413 -s 1 -d -1 -p message -e 32 -c 2 -a 0 -i 9 -k RTR
r -t 0.425515440 -s 29 -d -1 -p message -e 32 -c 2 -a 0 -i 9 -k RTR
r -t 0.425515441 -s 8 -d -1 -p message -e 32 -c 2 -a 0 -i 9 -k RTR
r -t 0.425515459 -s 28 -d -1 -p message -e 32 -c 2 -a 0 -i 9 -k RTR
r -t 0.425515474 -s 20 -d -1 -p message -e 32 -c 2 -a 0 -i 9 -k RTR
r -t 0.425515476 -s 35 -d -1 -p message -e 32 -c 2 -a 0 -i 9 -k RTR
+ -t 0.429968552 -s 17 -d -1 -p message -e 32 -c 2 -a 0 -i 10 -k RTR 
- -t 0.429968552 -s 17 -d -1 -p message -e 32 -c 2 -a 0 -i 10 -k RTR
h -t 0.429968552 -s 17 -d -1 -p message -e 32 -c 2 -a 0 -i 10 -k RTR
r -t 0.434018667 -s 0 -d -1 -p message -e 32 -c 2 -a 0 -i 10 -k RTR
r -t 0.434018750 -s 3 -d -1 -p message -e 32 -c 2 -a 0 -i 10 -k RTR
r -t 0.434018788 -s 36 -d -1 -p message -e 32 -c 2 -a 0 -i 10 -k RTR
r -t 0.434018793 -s 30 -d -1 -p message -e 32 -c 2 -a 0 -i 10 -k RTR
r -t 0.434018804 -s 14 -d -1 -p message -e 32 -c 2 -a 0 -i 10 -k RTR
r -t 0.434018807 -s 11 -d -1 -p message -e 32 -c 2 -a 0 -i 10 -k RTR
r -t 0.434018832 -s 22 -d -1 -p message -e 32 -c 2 -a 0 -i 10 -k RTR