n -t * -s 0  -x 359 -y 754 -Z 0 -z 20  -v circle -c black
n -t * -s 1  -x 1205 -y 961 -Z 0 -z 20  -v circle -c black
n -t * -s 2  -x 905 -y 439 -Z 0 -z 20  -v circle -c black
n -t * -s 3  -x 354 -y 607 -Z 0 -z 20  -v circle -c black
n -t * -s 4  -x 334 -y 132 -Z 0 -z 20  -v circle -c black
n -t * -s 5  -x 993 -y 247 -Z 0 -z 20  -v circle -c black
n -t * -s 6  -x 24 -y 669 -Z 0 -z 20  -v circle -c black
n -t * -s 7  -x 1071 -y 818 -Z 0 -z 20  -v circle -c black
n -t * -s 8  -x 1126 -y 660 -Z 0 -z 20  -v circle -c black
n -t * -s 9  -x 992 -y 921 -Z 0 -z 20  -v circle -c black
n -t * -s 10  -x 122 -y 1225 -Z 0 -z 20  -v circle -c black
n -t * -s 11  -x 814 -y 691 -Z 0 -z 20  -v circle -c black
n -t * -s 12  -x 982 -y 658 -Z 0 -z 20  -v circle -c black
n -t * -s 13  -x 959 -y 896 -Z 0 -z 20  -v circle -c black
n -t * -s 14  -x 252 -y 571 -Z 0 -z 20  -v circle -c black
n -t * -s 15  -x 353 -y 195 -Z 0 -z 20  -v circle -c black
n -t * -s 16  -x 1123 -y 1250 -Z 0 -z 20  -v circle -c black
n -t * -s 17  -x 478 -y 877 -Z 0 -z 20  -v circle -c black
n -t * -s 18  -x 373 -y 143 -Z 0 -z 20  -v circle -c black
n -t * -s 19  -x 1202 -y 19 -Z 0 -z 20  -v circle -c black
n -t * -s 20  -x 599 -y 118 -Z 0 -z 20  -v circle -c black
n -t * -s 21  -x 690 -y 103 -Z 0 -z 20  -v circle -c black
n -t * -s 22  -x 179 -y 1174 -Z 0 -z 20  -v circle -c black
n -t * -s 23  -x 82 -y 505 -Z 0 -z 20  -v circle -c black
n -t * -s 24  -x 374 -y 237 -Z 0 -z 20  -v circle -c black
n -t * -s 25  -x 110 -y 143 -Z 0 -z 20  -v circle -c black
n -t * -s 26  -x 100 -y 589 -Z 0 -z 20  -v circle -c black
n -t * -s 27  -x 605 -y 369 -Z 0 -z 20  -v circle -c black
n -t * -s 28  -x 239 -y 47 -Z 0 -z 20  -v circle -c black
n -t * -s 29  -x 1169 -y 736 -Z 0 -z 20  -v circle -c black
n -t * -s 30  -x 687 -y 1175 -Z 0 -z 20  -v circle -c black
n -t * -s 31  -x 1229 -y 37 -Z 0 -z 20  -v circle -c black
n -t * -s 32  -x 20 -y 659 -Z 0 -z 20  -v circle -c black
n -t * -s 33  -x 1087 -y 1185 -Z 0 -z 20  -v circle -c black
n -t * -s 34  -x 995 -y 1009 -Z 0 -z 20  -v circle -c black
n -t * -s 35  -x 1179 -y 640 -Z 0 -z 20  -v circle -c black
n -t * -s 36  -x 619 -y 1205 -Z 0 -z 20  -v circle -c black
n -t * -s 37  -x 1018 -y 328 -Z 0 -z 20  -v circle -c black
n -t * -s 38  -x 1095 -y 1032 -Z 0 -z 20  -v circle -c black
n -t * -s 39  -x 1171 -y 1079 -Z 0 -z 20  -v circle -c black
V -t * -v 1.0a5 -a 0
W -t * -x 1250 -y 1250
A -t * -n 1 -p 0 -o 0x7fffffff -c 30 -a 1
A -t * -h 1 -m 1073741823 -s 0
+ -t 0.036328457 -s 11 -d -1 -p message -e 32 -c 2 -a 0 -i 0 -k RTR 
- -t 0.036328457 -s 11 -d -1 -p message -e 32 -c 2 -a 0 -i 0 -k RTR
h -t 0.036328457 -s 11 -d -1 -p message -e 32 -c 2 -a 0 -i 0 -k RTR
r -t 0.038779028 -s 12 -d -1 -p message -e 32 -c 2 -a 0 -i 0 -k RTR
+ -t 0.073282045 -s 4 -d -1 -p message -e 32 -c 2 -a 0 -i 1 -k RTR 
- -t 0.073282045 -s 4 -d -1 -p message -e 32 -c 2 -a 0 -i 1 -k RTR
h -t 0.073282045 -s 4 -d -1 -p message -e 32 -c 2 -a 0 -i 1 -k RTR
r -t 0.076692180 -s 18 -d -1 -p message -e 32 -c 2 -a 0 -i 1 -k RTR
r -t 0.076692264 -s 15 -d -1 -p message -e 32 -c 2 -a 0 -i 1 -k RTR
r -t 0.076692420 -s 24 -d -1 -p message -e 32 -c 2 -a 0 -i 1 -k RTR
r -t 0.076692470 -s 28 -d -1 -p message -e 32 -c 2 -a 0 -i 1 -k RTR
r -t 0.076692793 -s 25 -d -1 -p message -e 32 -c 2 -a 0 -i 1 -k RTR
+ -t 0.088584275 -s 31 -d -1 -p message -e 32 -c 2 -a 0 -i 2 -k RTR 
- -t 0.088584275 -s 31 -d -1 -p message -e 32 -c 2 -a 0 -i 2 -k RTR
h -t 0.088584275 -s 31 -d -1 -p message -e 32 -c 2 -a 0 -i 2 -k RTR
r -t 0.092634383 -s 19 -d -1 -p message -e 32 -c 2 -a 0 -i 2 -k RTR
+ -t 0.126846076 -s 36 -d -1 -p message -e 32 -c 2 -a 0 -i 3 -k RTR 
- -t 0.126846076 -s 36 -d -1 -p message -e 32 -c 2 -a 0 -i 3 -k RTR
h -t 0.126846076 -s 36 -d -1 -p message -e 32 -c 2 -a 0 -i 3 -k RTR
+ -t 0.129642904 -s 28 -d -1 -p message -e 32 -c 2 -a 0 -i 4 -k RTR 
- -t 0.129642904 -s 28 -d -1 -p message -e 32 -c 2 -a 0 -i 4 -k RTR
h -t 0.129642904 -s 28 -d -1 -p message -e 32 -c 2 -a 0 -i 4 -k RTR
r -t 0.130896324 -s 30 -d -1 -p message -e 32 -c 2 -a 0 -i 3 -k RTR
r -t 0.133373329 -s 4 -d -1 -p message -e 32 -c 2 -a 0 -i 4 -k RTR
r -t 0.133373440 -s 25 -d -1 -p message -e 32 -c 2 -a 0 -i 4 -k RTR
r -t 0.133373454 -s 18 -d -1 -p message -e 32 -c 2 -a 0 -i 4 -k RTR
r -t 0.133373527 -s 15 -d -1 -p message -e 32 -c 2 -a 0 -i 4 -k RTR
r -t 0.133373681 -s 24 -d -1 -p message -e 32 -c 2 -a 0 -i 4 -k RTR
+ -t 0.247164037 -s 15 -d -1 -p message -e 32 -c 2 -a 0 -i 5 -k RTR 
- -t 0.247164037 -s 15 -d -1 -p message -e 32 -c 2 -a 0 -i 5 -k RTR
h -t 0.247164037 -s 15 -d -1 -p message -e 32 -c 2 -a 0 -i 5 -k RTR
r -t 0.250574193 -s 24 -d -1 -p message -e 32 -c 2 -a 0 -i 5 -k RTR
r -t 0.250574222 -s 18 -d -1 -p message -e 32 -c 2 -a 0 -i 5 -k RTR
r -t 0.250574256 -s 4 -d -1 -p message -e 32 -c 2 -a 0 -i 5 -k RTR
r -t 0.250574659 -s 28 -d -1 -p message -e 32 -c 2 -a 0 -i 5 -k RTR
r -t 0.250574865 -s 25 -d -1 -p message -e 32 -c 2 -a 0 -i 5 -k RTR
+ -t 0.321822596 -s 26 -d -1 -p message -e 32 -c 2 -a 0 -i 6 -k RTR 
- -t 0.321822596 -s 26 -d -1 -p message -e 32 -c 2 -a 0 -i 6 -k RTR
h -t 0.321822596 -s 26 -d -1 -p message -e 32 -c 2 -a 0 -i 6 -k RTR
r -t 0.324272883 -s 23 -d -1 -p message -e 32 -c 2 -a 0 -i 6 -k RTR
r -t 0.324272951 -s 32 -d -1 -p message -e 32 -c 2 -a 0 -i 6 -k RTR
r -t 0.324272964 -s 6 -d -1 -p message -e 32 -c 2 -a 0 -i 6 -k RTR
r -t 0.324273107 -s 14 -d -1 -p message -e 32 -c 2 -a 0 -i 6 -k RTR
+ -t 0.349191800 -s 3 -d -1 -p message -e 32 -c 2 -a 0 -i 7 -k RTR 
- -t 0.349191800 -s 3 -d -1 -p message -e 32 -c 2 -a 0 -i 7 -k RTR
h -t 0.349191800 -s 3 -d -1 -p message -e 32 -c 2 -a 0 -i 7 -k RTR
r -t 0.352922161 -s 14 -d -1 -p message -e 32 -c 2 -a 0 -i 7 -k RTR
r -t 0.352922291 -s 0 -d -1 -p message -e 32 -c 2 -a 0 -i 7 -k RTR
+ -t 0.356017125 -s 29 -d -1 -p message -e 32 -c 2 -a 0 -i 8 -k RTR 
- -t 0.356017125 -s 29 -d -1 -p message -e 32 -c 2 -a 0 -i 8 -k RTR
h -t 0.356017125 -s 29 -d -1 -p message -e 32 -c 2 -a 0 -i 8 -k RTR
r -t 0.359427416 -s 8 -d -1 -p message -e 32 -c 2 -a 0 -i 8 -k RTR
r -t 0.359427447 -s 35 -d -1 -p message -e 32 -c 2 -a 0 -i 8 -k RTR
r -t 0.359427551 -s 7 -d -1 -p message -e 32 -c 2 -a 0 -i 8 -k RTR
r -t 0.359427800 -s 12 -d -1 -p message -e 32 -c 2 -a 0 -i 8 -k RTR
r -t 0.359427884 -s 1 -d -1 -p message -e 32 -c 2 -a 0 -i 8 -k RTR
+ -t 0.421784672 -s 10 -d -1 -p message -e 32 -c 2 -a 0 -i 9 -k RTR 
- -t 0.421784672 -s 10 -d -1 -p message -e 32 -c 2 -a 0 -i 9 -k RTR
h -t 0.421784672 -s 10 -d -1 -p message -e 32 -c 2 -a 0 -i 9 -k RTR
r -t 0.425514927 -s 22 -d -1 -p message -e 32 -c 2 -a 0 -i 9 -k RTR
+ -t 0.429968552 -s 17 -d -1 -p message -e 32 -c 2 -a 0 -i 10 -k RTR 
- -t 0.429968552 -s 17 -d -1 -p message -e 32 -c 2 -a 0 -i 10 -k RTR
h -t 0.429968552 -s 17 -d -1 -p message -e 32 -c 2 -a 0 -i 10 -k RTR
r -t 0.434019122 -s 0 -d -1 -p message -e 32 -c 2 -a 0 -i 10 -k RTR
+ -t 0.454435365 -s 34 -d -1 -p message -e 32 -c 2 -a 0 -i 11 -k RTR 
- -t 0.454435365 -s 34 -d -1 -p message -e 32 -c 2 -a 0 -i 11 -k RTR
h -t 0.454435365 -s 34 -d -1 -p message -e 32 -c 2 -a 0 -i 11 -k RTR
r -t 0.458165659 -s 9 -d -1 -p message -e 32 -c 2 -a 0 -i 11 -k RTR
r -t 0.458165707 -s 38 -d -1 -p message -e 32 -c 2 -a 0 -i 11 -k RTR
r -t 0.458165761 -s 13 -d -1 -p message -e 32 -c 2 -a 0 -i 11 -k RTR
r -t 0.458165997 -s 39 -d -1 -p message -e 32 -c 2 -a 0 -i 11 -k RTR
r -t 0.458166027 -s 33 -d -1 -p message -e 32 -c 2 -a 0 -i 11 -k RTR
r -t 0.458166050 -s 7 -d -1 -p message -e 32 -c 2 -a 0 -i 11 -k RTR
r -t 0.458166083 -s 1 -d -1 -p message -e 32 -c 2 -a 0 -i 11 -k RTR
+ -t 0.474672686 -s 27 -d -1 -p message -e 32 -c 2 -a 0 -i 12 -k RTR 
- -t 0.474672686 -s 27 -d -1 -p message -e 32 -c 2 -a 0 -i 12 -k RTR
h -t 0.474672686 -s 27 -d -1 -p message -e 32 -c 2 -a 0 -i 12 -k RTR
+ -t 0.671962519 -s 14 -d -1 -p message -e 32 -c 2 -a 0 -i 13 -k RTR 
- -t 0.671962519 -s 14 -d -1 -p message -e 32 -c 2 -a 0 -i 13 -k RTR
h -t 0.671962519 -s 14 -d -1 -p message -e 32 -c 2 -a 0 -i 13 -k RTR
r -t 0.676652880 -s 3 -d -1 -p message -e 32 -c 2 -a 0 -i 13 -k RTR
r -t 0.676653030 -s 26 -d -1 -p message -e 32 -c 2 -a 0 -i 13 -k RTR
r -t 0.676653127 -s 23 -d -1 -p message -e 32 -c 2 -a 0 -i 13 -k RTR
r -t 0.676653226 -s 0 -d -1 -p message -e 32 -c 2 -a 0 -i 13 -k RTR
r -t 0.676653346 -s 32 -d -1 -p message -e 32 -c 2 -a 0 -i 13 -k RTR
r -t 0.676653347 -s 6 -d -1 -p message -e 32 -c 2 -a 0 -i 13 -k RTR
+ -t 0.684226311 -s 37 -d -1 -p message -e 32 -c 2 -a 0 -i 14 -k RTR 
- -t 0.684226311 -s 37 -d -1 -p message -e 32 -c 2 -a 0 -i 14 -k RTR
h -t 0.684226311 -s 37 -d -1 -p message -e 32 -c 2 -a 0 -i 14 -k RTR
r -t 0.688276593 -s 5 -d -1 -p message -e 32 -c 2 -a 0 -i 14 -k RTR
r -t 0.688276839 -s 2 -d -1 -p message -e 32 -c 2 -a 0 -i 14 -k RTR
+ -t 0.820392893 -s 20 -d -1 -p message -e 32 -c 2 -a 0 -i 15 -k RTR 
- -t 0.820392893 -s 20 -d -1 -p message -e 32 -c 2 -a 0 -i 15 -k RTR
h -t 0.820392893 -s 20 -d -1 -p message -e 32 -c 2 -a 0 -i 15 -k RTR
r -t 0.824123200 -s 21 -d -1 -p message -e 32 -c 2 -a 0 -i 15 -k RTR
r -t 0.824123651 -s 18 -d -1 -p message -e 32 -c 2 -a 0 -i 15 -k RTR
+ -t 0.850035071 -s 19 -d -1 -p message -e 32 -c 2 -a 0 -i 16 -k RTR 
- -t 0.850035071 -s 19 -d -1 -p message -e 32 -c 2 -a 0 -i 16 -k RTR
h -t 0.850035071 -s 19 -d -1 -p message -e 32 -c 2 -a 0 -i 16 -k RTR
r -t 0.854725179 -s 31 -d -1 -p message -e 32 -c 2 -a 0 -i 16 -k RTR
+ -t 0.869383415 -s 18 -d -1 -p message -e 32 -c 2 -a 0 -i 17 -k RTR 
- -t 0.869383415 -s 18 -d -1 -p message -e 32 -c 2 -a 0 -i 17 -k RTR
h -t 0.869383415 -s 18 -d -1 -p message -e 32 -c 2 -a 0 -i 17 -k RTR
r -t 0.872793550 -s 4 -d -1 -p message -e 32 -c 2 -a 0 -i 17 -k RTR
r -t 0.872793601 -s 15 -d -1 -p message -e 32 -c 2 -a 0 -i 17 -k RTR
r -t 0.872793729 -s 24 -d -1 -p message -e 32 -c 2 -a 0 -i 17 -k RTR
r -t 0.872793965 -s 28 -d -1 -p message -e 32 -c 2 -a 0 -i 17 -k RTR
r -t 0.872794173 -s 20 -d -1 -p message -e 32 -c 2 -a 0 -i 17 -k RTR
+ -t 0.875205073 -s 13 -d -1 -p message -e 32 -c 2 -a 0 -i 18 -k RTR 
- -t 0.875205073 -s 13 -d -1 -p message -e 32 -c 2 -a 0 -i 18 -k RTR
h -t 0.875205073 -s 13 -d -1 -p message -e 32 -c 2 -a 0 -i 18 -k RTR
r -t 0.877975211 -s 9 -d -1 -p message -e 32 -c 2 -a 0 -i 18 -k RTR
r -t 0.877975468 -s 34 -d -1 -p message -e 32 -c 2 -a 0 -i 18 -k RTR
r -t 0.877975528 -s 7 -d -1 -p message -e 32 -c 2 -a 0 -i 18 -k RTR
r -t 0.877975714 -s 38 -d -1 -p message -e 32 -c 2 -a 0 -i 18 -k RTR
r -t 0.877975870 -s 12 -d -1 -p message -e 32 -c 2 -a 0 -i 18 -k RTR
+ -t 0.884601285 -s 12 -d -1 -p message -e 32 -c 2 -a 0 -i 19 -k RTR 
- -t 0.884601285 -s 12 -d -1 -p message -e 32 -c 2 -a 0 -i 19 -k RTR
h -t 0.884601285 -s 12 -d -1 -p message -e 32 -c 2 -a 0 -i 19 -k RTR
r -t 0.888971765 -s 8 -d -1 -p message -e 32 -c 2 -a 0 -i 19 -k RTR
r -t 0.888971855 -s 11 -d -1 -p message -e 32 -c 2 -a 0 -i 19 -k RTR
r -t 0.888971895 -s 7 -d -1 -p message -e 32 -c 2 -a 0 -i 19 -k RTR
r -t 0.888971944 -s 35 -d -1 -p message -e 32 -c 2 -a 0 -i 19 -k RTR
r -t 0.888971960 -s 29 -d -1 -p message -e 32 -c 2 -a 0 -i 19 -k RTR
r -t 0.888972059 -s 2 -d -1 -p message -e 32 -c 2 -a 0 -i 19 -k RTR
r -t 0.888972082 -s 13 -d -1 -p message -e 32 -c 2 -a 0 -i 19 -k RTR
+ -t 0.902722248 -s 9 -d -1 -p message -e 32 -c 2 -a 0 -i 20 -k RTR 
- -t 0.902722248 -s 9 -d -1 -p message -e 32 -c 2 -a 0 -i 20 -k RTR
h -t 0.902722248 -s 9 -d -1 -p message -e 32 -c 2 -a 0 -i 20 -k RTR
r -t 0.906452386 -s 13 -d -1 -p message -e 32 -c 2 -a 0 -i 20 -k RTR
r -t 0.906452542 -s 34 -d -1 -p message -e 32 -c 2 -a 0 -i 20 -k RTR
r -t 0.906452681 -s 7 -d -1 -p message -e 32 -c 2 -a 0 -i 20 -k RTR
r -t 0.906452753 -s 38 -d -1 -p message -e 32 -c 2 -a 0 -i 20 -k RTR
r -t 0.906452971 -s 1 -d -1 -p message -e 32 -c 2 -a 0 -i 20 -k RTR
r -t 0.906453044 -s 39 -d -1 -p message -e 32 -c 2 -a 0 -i 20 -k RTR
+ -t 0.974422618 -s 22 -d -1 -p message -e 32 -c 2 -a 0 -i 21 -k RTR 
- -t 0.974422618 -s 22 -d -1 -p message -e 32 -c 2 -a 0 -i 21 -k RTR
h -t 0.974422618 -s 22 -d -1 -p message -e 32 -c 2 -a 0 -i 21 -k RTR
r -t 0.976872873 -s 10 -d -1 -p message -e 32 -c 2 -a 0 -i 21 -k RTR
n -t 1.000000 -s 0 -x 359.000000 -y 754.000000 -U 3.992046 -V -0.252129 -T 190.378570
n -t 1.000000 -s 1 -x 1205.000000 -y 961.000000 -U -0.819232 -V 0.573462 -T 256.337668
n -t 1.000000 -s 2 -x 905.000000 -y 439.000000 -U -1.998960 -V 0.064483 -T 341.177373
n -t 1.000000 -s 3 -x 354.000000 -y 607.000000 -U -0.845482 -V -1.812501 -T 189.241248
n -t 1.000000 -s 4 -x 334.000000 -y 132.000000 -U 0.865065 -V 0.501659 -T 506.320057
n -t 1.000000 -s 5 -x 993.000000 -y 247.000000 -U -1.998542 -V -0.076343 -T 366.767297
n -t 1.000000 -s 6 -x 24.000000 -y 669.000000 -U 3.945751 -V -0.656542 -T 307.672716
n -t 1.000000 -s 7 -x 1071.000000 -y 818.000000 -U -1.652483 -V -2.503857 -T 318.308900
n -t 1.000000 -s 8 -x 1126.000000 -y 660.000000 -U -2.021498 -V -2.216652 -T 271.580764
n -t 1.000000 -s 9 -x 992.000000 -y 921.000000 -U -1.859786 -V -0.735660 -T 411.875285
n -t 1.000000 -s 10 -x 122.000000 -y 1225.000000 -U 1.619317 -V -2.525433 -T 171.059769
n -t 1.000000 -s 11 -x 814.000000 -y 691.000000 -U -4.075793 -V 2.896190 -T 113.597535
n -t 1.000000 -s 12 -x 982.000000 -y 658.000000 -U -0.881755 -V -0.471708 -T 973.059608
n -t 1.000000 -s 13 -x 959.000000 -y 896.000000 -U -1.899713 -V -2.321872 -T 37.900454
n -t 1.000000 -s 14 -x 252.000000 -y 571.000000 -U 1.952075 -V -0.435203 -T 236.671185
n -t 1.000000 -s 15 -x 353.000000 -y 195.000000 -U 0.883788 -V 0.467888 -T 981.004587
n -t 1.000000 -s 16 -x 1123.000000 -y 1250.000000 -U -3.473948 -V -1.982847 -T 189.121984
n -t 1.000000 -s 17 -x 478.000000 -y 877.000000 -U 3.608788 -V 1.725297 -T 202.283990
n -t 1.000000 -s 18 -x 373.000000 -y 143.000000 -U 0.581359 -V 1.913641 -T 82.565126
n -t 1.000000 -s 19 -x 1202.000000 -y 19.000000 -U 0.180295 -V 4.996748 -T 38.825250
n -t 1.000000 -s 20 -x 599.000000 -y 118.000000 -U -0.381946 -V 0.924185 -T 798.541796
n -t 1.000000 -s 21 -x 690.000000 -y 103.000000 -U 0.344734 -V 0.938701 -T 429.316899
n -t 1.000000 -s 22 -x 179.000000 -y 1174.000000 -U -0.045976 -V -0.998943 -T 717.759012
n -t 1.000000 -s 23 -x 82.000000 -y 505.000000 -U -0.807086 -V -3.917730 -T 59.473208
n -t 1.000000 -s 24 -x 374.000000 -y 237.000000 -U -1.465168 -V 3.722000 -T 169.263847
n -t 1.000000 -s 25 -x 110.000000 -y 143.000000 -U 4.715853 -V -1.661544 -T 81.851573
n -t 1.000000 -s 26 -x 100.000000 -y 589.000000 -U 2.944599 -V -0.573877 -T 358.962239
n -t 1.000000 -s 27 -x 605.000000 -y 369.000000 -U 0.998962 -V -0.045550 -T 636.660820
n -t 1.000000 -s 28 -x 239.000000 -y 47.000000 -U 0.617613 -V 3.952032 -T 288.206198
n -t 1.000000 -s 29 -x 1169.000000 -y 736.000000 -U -0.525540 -V 1.929717 -T 121.779514
n -t 1.000000 -s 30 -x 687.000000 -y 1175.000000 -U 0.170059 -V -3.996383 -T 258.733937
n -t 1.000000 -s 31 -x 1229.000000 -y 37.000000 -U -3.295699 -V 2.266798 -T 311.011455
n -t 1.000000 -s 32 -x 20.000000 -y 659.000000 -U 4.747254 -V 1.569579 -T 207.699013
n -t 1.000000 -s 33 -x 1087.000000 -y 1185.000000 -U -1.752765 -V -0.963231 -T 126.657017
n -t 1.000000 -s 34 -x 995.000000 -y 1009.000000 -U -0.868243 -V -0.496139 -T 830.412548
n -t 1.000000 -s 35 -x 1179.000000 -y 640.000000 -U -0.961428 -V 0.275057 -T 785.290392
n -t 1.000000 -s 36 -x 619.000000 -y 1205.000000 -U 0.646699 -V -2.929468 -T 388.125123
n -t 1.000000 -s 37 -x 1018.000000 -y 328.000000 -U -3.577709 -V -1.788854 -T 19.565595
n -t 1.000000 -s 38 -x 1095.000000 -y 1032.000000 -U -0.872281 -V -0.489006 -T 529.646108
n -t 1.000000 -s 39 -x 1171.000000 -y 1079.000000 -U -2.823441 -V 1.013991 -T 114.399398
+ -t 1.012825328 -s 13 -d -1 -p tcp -e 40 -c 2 -a 0 -i 22 -k AGT 
- -t 1.012825328 -s 13 -d -1 -p tcp -e 40 -c 2 -a 0 -i 22 -k AGT
h -t 1.012825328 -s 13 -d -1 -p tcp -e 40 -c 2 -a 0 -i 22 -k AGT
+ -t 1.012825328 -s 13 -d 9 -p tcp -e 60 -c 2 -a 0 -i 22 -k RTR 
- -t 1.012825328 -s 13 -d 9 -p tcp -e 60 -c 2 -a 0 -i 22 -k RTR
h -t 1.012825328 -s 13 -d 9 -p tcp -e 60 -c 2 -a 0 -i 22 -k RTR
r -t 1.025953742 -s 9 -d 9 -p tcp -e 60 -c 2 -a 0 -i 22 -k AGT
+ -t 1.025953742 -s 9 -d -1 -p ack -e 40 -c 2 -a 0 -i 23 -k AGT 
- -t 1.025953742 -s 9 -d -1 -p ack -e 40 -c 2 -a 0 -i 23 -k AGT
h -t 1.025953742 -s 9 -d -1 -p ack -e 40 -c 2 -a 0 -i 23 -k AGT
+ -t 1.025953742 -s 9 -d 13 -p ack -e 60 -c 2 -a 0 -i 23 -k RTR 
- -t 1.025953742 -s 9 -d 13 -p ack -e 60 -c 2 -a 0 -i 23 -k RTR
h -t 1.025953742 -s 9 -d 13 -p ack -e 60 -c 2 -a 0 -i 23 -k RTR
r -t 1.029843880 -s 13 -d 13 -p ack -e 60 -c 2 -a 0 -i 23 -k AGT
+ -t 1.029843880 -s 13 -d -1 -p tcp -e 1040 -c 2 -a 0 -i 24 -k AGT 
- -t 1.029843880 -s 13 -d -1 -p tcp -e 1040 -c 2 -a 0 -i 24 -k AGT
h -t 1.029843880 -s 13 -d -1 -p tcp -e 1040 -c 2 -a 0 -i 24 -k AGT
+ -t 1.029843880 -s 13 -d 9 -p tcp -e 1060 -c 2 -a 0 -i 24 -k RTR 
- -t 1.029843880 -s 13 -d 9 -p tcp -e 1060 -c 2 -a 0 -i 24 -k RTR
h -t 1.029843880 -s 13 -d 9 -p tcp -e 1060 -c 2 -a 0 -i 24 -k RTR
r -t 1.034246018 -s 9 -d 9 -p tcp -e 36 -c 2 -a 0 -i 24 -k AGT
+ -t 1.034246018 -s 9 -d -1 -p ack -e 40 -c 2 -a 0 -i 25 -k AGT 
- -t 1.034246018 -s 9 -d -1 -p ack -e 40 -c 2 -a 0 -i 25 -k AGT
h -t 1.034246018 -s 9 -d -1 -p ack -e 40 -c 2 -a 0 -i 25 -k AGT
+ -t 1.034246018 -s 9 -d 13 -p ack -e 60 -c 2 -a 0 -i 25 -k RTR 
- -t 1.034246018 -s 9 -d 13 -p ack -e 60 -c 2 -a 0 -i 25 -k RTR
h -t 1.034246018 -s 9 -d 13 -p ack -e 60 -c 2 -a 0 -i 25 -k RTR
r -t 1.038776156 -s 13 -d 13 -p ack -e 60 -c 2 -a 0 -i 25 -k AGT
+ -t 1.049263177 -s 8 -d -1 -p message -e 32 -c 2 -a 0 -i 26 -k RTR 
- -t 1.049263177 -s 8 -d -1 -p message -e 32 -c 2 -a 0 -i 26 -k RTR
h -t 1.049263177 -s 8 -d -1 -p message -e 32 -c 2 -a 0 -i 26 -k RTR
r -t 1.052673365 -s 35 -d -1 -p message -e 32 -c 2 -a 0 -i 26 -k RTR
r -t 1.052673468 -s 29 -d -1 -p message -e 32 -c 2 -a 0 -i 26 -k RTR
r -t 1.052673656 -s 12 -d -1 -p message -e 32 -c 2 -a 0 -i 26 -k RTR
r -t 1.052673734 -s 7 -d -1 -p message -e 32 -c 2 -a 0 -i 26 -k RTR
+ -t 1.053083472 -s 20 -d -1 -p tcp -e 40 -c 2 -a 0 -i 27 -k AGT 
- -t 1.053083472 -s 20 -d -1 -p tcp -e 40 -c 2 -a 0 -i 27 -k AGT
h -t 1.053083472 -s 20 -d -1 -p tcp -e 40 -c 2 -a 0 -i 27 -k AGT
+ -t 1.107219846 -s 34 -d -1 -p tcp -e 40 -c 2 -a 0 -i 28 -k AGT 
- -t 1.107219846 -s 34 -d -1 -p tcp -e 40 -c 2 -a 0 -i 28 -k AGT
h -t 1.107219846 -s 34 -d -1 -p tcp -e 40 -c 2 -a 0 -i 28 -k AGT
+ -t 1.107219846 -s 34 -d 9 -p tcp -e 60 -c 2 -a 0 -i 28 -k RTR 
- -t 1.107219846 -s 34 -d 9 -p tcp -e 60 -c 2 -a 0 -i 28 -k RTR
h -t 1.107219846 -s 34 -d 9 -p tcp -e 60 -c 2 -a 0 -i 28 -k RTR
r -t 1.121628727 -s 9 -d 9 -p tcp -e 60 -c 2 -a 0 -i 28 -k AGT
+ -t 1.121628727 -s 9 -d -1 -p ack -e 40 -c 2 -a 0 -i 29 -k AGT 
- -t 1.121628727 -s 9 -d -1 -p ack -e 40 -c 2 -a 0 -i 29 -k AGT
h -t 1.121628727 -s 9 -d -1 -p ack -e 40 -c 2 -a 0 -i 29 -k AGT
+ -t 1.121628727 -s 9 -d 34 -p ack -e 60 -c 2 -a 0 -i 29 -k RTR 
- -t 1.121628727 -s 9 -d 34 -p ack -e 60 -c 2 -a 0 -i 29 -k RTR
h -t 1.121628727 -s 9 -d 34 -p ack -e 60 -c 2 -a 0 -i 29 -k RTR
r -t 1.126159020 -s 34 -d 34 -p ack -e 60 -c 2 -a 0 -i 29 -k AGT
+ -t 1.126159020 -s 34 -d -1 -p tcp -e 1040 -c 2 -a 0 -i 30 -k AGT 
- -t 1.126159020 -s 34 -d -1 -p tcp -e 1040 -c 2 -a 0 -i 30 -k AGT
h -t 1.126159020 -s 34 -d -1 -p tcp -e 1040 -c 2 -a 0 -i 30 -k AGT
+ -t 1.126159020 -s 34 -d 9 -p tcp -e 1060 -c 2 -a 0 -i 30 -k RTR 
- -t 1.126159020 -s 34 -d 9 -p tcp -e 1060 -c 2 -a 0 -i 30 -k RTR
h -t 1.126159020 -s 34 -d 9 -p tcp -e 1060 -c 2 -a 0 -i 30 -k RTR
r -t 1.131201314 -s 9 -d 9 -p tcp -e 36 -c 2 -a 0 -i 30 -k AGT
+ -t 1.131201314 -s 9 -d -1 -p ack -e 40 -c 2 -a 0 -i 31 -k AGT 
- -t 1.131201314 -s 9 -d -1 -p ack -e 40 -c 2 -a 0 -i 31 -k AGT
h -t 1.131201314 -s 9 -d -1 -p ack -e 40 -c 2 -a 0 -i 31 -k AGT
+ -t 1.131201314 -s 9 -d 34 -p ack -e 60 -c 2 -a 0 -i 31 -k RTR 
- -t 1.131201314 -s 9 -d 34 -p ack -e 60 -c 2 -a 0 -i 31 -k RTR
h -t 1.131201314 -s 9 -d 34 -p ack -e 60 -c 2 -a 0 -i 31 -k RTR
r -t 1.135731608 -s 34 -d 34 -p ack -e 60 -c 2 -a 0 -i 31 -k AGT
+ -t 1.157653604 -s 32 -d -1 -p message -e 32 -c 2 -a 0 -i 32 -k RTR 
- -t 1.157653604 -s 32 -d -1 -p message -e 32 -c 2 -a 0 -i 32 -k RTR
h -t 1.157653604 -s 32 -d -1 -p message -e 32 -c 2 -a 0 -i 32 -k RTR
r -t 1.162343638 -s 6 -d -1 -p message -e 32 -c 2 -a 0 -i 32 -k RTR
r -t 1.162343958 -s 26 -d -1 -p message -e 32 -c 2 -a 0 -i 32 -k RTR
r -t 1.162344159 -s 23 -d -1 -p message -e 32 -c 2 -a 0 -i 32 -k RTR
r -t 1.162344430 -s 14 -d -1 -p message -e 32 -c 2 -a 0 -i 32 -k RTR
+ -t 1.240586482 -s 6 -d -1 -p message -e 32 -c 2 -a 0 -i 33 -k RTR 
- -t 1.240586482 -s 6 -d -1 -p message -e 32 -c 2 -a 0 -i 33 -k RTR
h -t 1.240586482 -s 6 -d -1 -p message -e 32 -c 2 -a 0 -i 33 -k RTR
r -t 1.243036516 -s 32 -d -1 -p message -e 32 -c 2 -a 0 -i 33 -k RTR
r -t 1.243036849 -s 26 -d -1 -p message -e 32 -c 2 -a 0 -i 33 -k RTR
r -t 1.243037063 -s 23 -d -1 -p message -e 32 -c 2 -a 0 -i 33 -k RTR
r -t 1.243037308 -s 14 -d -1 -p message -e 32 -c 2 -a 0 -i 33 -k RTR
+ -t 1.254386373 -s 24 -d -1 -p message -e 32 -c 2 -a 0 -i 34 -k RTR 
- -t 1.254386373 -s 24 -d -1 -p message -e 32 -c 2 -a 0 -i 34 -k RTR
h -t 1.254386373 -s 24 -d -1 -p message -e 32 -c 2 -a 0 -i 34 -k RTR
r -t 1.259076531 -s 15 -d -1 -p message -e 32 -c 2 -a 0 -i 34 -k RTR
r -t 1.259076688 -s 18 -d -1 -p message -e 32 -c 2 -a 0 -i 34 -k RTR
r -t 1.259076750 -s 4 -d -1 -p message -e 32 -c 2 -a 0 -i 34 -k RTR
r -t 1.259077149 -s 28 -d -1 -p message -e 32 -c 2 -a 0 -i 34 -k RTR
+ -t 1.277448899 -s 39 -d -1 -p message -e 32 -c 2 -a 0 -i 35 -k RTR 
- -t 1.277448899 -s 39 -d -1 -p message -e 32 -c 2 -a 0 -i 35 -k RTR
h -t 1.277448899 -s 39 -d -1 -p message -e 32 -c 2 -a 0 -i 35 -k RTR
r -t 1.280859196 -s 38 -d -1 -p message -e 32 -c 2 -a 0 -i 35 -k RTR
r -t 1.280859309 -s 1 -d -1 -p message -e 32 -c 2 -a 0 -i 35 -k RTR
r -t 1.280859347 -s 33 -d -1 -p message -e 32 -c 2 -a 0 -i 35 -k RTR
r -t 1.280859488 -s 16 -d -1 -p message -e 32 -c 2 -a 0 -i 35 -k RTR
r -t 1.280859529 -s 34 -d -1 -p message -e 32 -c 2 -a 0 -i 35 -k RTR
r -t 1.280859695 -s 9 -d -1 -p message -e 32 -c 2 -a 0 -i 35 -k RTR
+ -t 1.371198109 -s 7 -d -1 -p tcp -e 40 -c 2 -a 0 -i 36 -k AGT 
- -t 1.371198109 -s 7 -d -1 -p tcp -e 40 -c 2 -a 0 -i 36 -k AGT
h -t 1.371198109 -s 7 -d -1 -p tcp -e 40 -c 2 -a 0 -i 36 -k AGT
+ -t 1.371198109 -s 7 -d 9 -p tcp -e 60 -c 2 -a 0 -i 36 -k RTR 
- -t 1.371198109 -s 7 -d 9 -p tcp -e 60 -c 2 -a 0 -i 36 -k RTR
h -t 1.371198109 -s 7 -d 9 -p tcp -e 60 -c 2 -a 0 -i 36 -k RTR
r -t 1.383687412 -s 9 -d 9 -p tcp -e 60 -c 2 -a 0 -i 36 -k AGT
+ -t 1.383687412 -s 9 -d -1 -p ack -e 40 -c 2 -a 0 -i 37 -k AGT 
- -t 1.383687412 -s 9 -d -1 -p ack -e 40 -c 2 -a 0 -i 37 -k AGT
h -t 1.383687412 -s 9 -d -1 -p ack -e 40 -c 2 -a 0 -i 37 -k AGT
+ -t 1.415823466 -s 33 -d -1 -p message -e 32 -c 2 -a 0 -i 38 -k RTR 
- -t 1.415823466 -s 33 -d -1 -p message -e 32 -c 2 -a 0 -i 38 -k RTR
h -t 1.415823466 -s 33 -d -1 -p message -e 32 -c 2 -a 0 -i 38 -k RTR
r -t 1.418913711 -s 16 -d -1 -p message -e 32 -c 2 -a 0 -i 38 -k RTR
r -t 1.418913914 -s 39 -d -1 -p message -e 32 -c 2 -a 0 -i 38 -k RTR
r -t 1.418913976 -s 38 -d -1 -p message -e 32 -c 2 -a 0 -i 38 -k RTR
r -t 1.418914127 -s 34 -d -1 -p message -e 32 -c 2 -a 0 -i 38 -k RTR
+ -t 1.434610508 -s 8 -d -1 -p tcp -e 40 -c 2 -a 0 -i 39 -k AGT 
- -t 1.434610508 -s 8 -d -1 -p tcp -e 40 -c 2 -a 0 -i 39 -k AGT
h -t 1.434610508 -s 8 -d -1 -p tcp -e 40 -c 2 -a 0 -i 39 -k AGT
+ -t 1.442372910 -s 38 -d -1 -p tcp -e 40 -c 2 -a 0 -i 40 -k AGT 
- -t 1.442372910 -s 38 -d -1 -p tcp -e 40 -c 2 -a 0 -i 40 -k AGT
h -t 1.442372910 -s 38 -d -1 -p tcp -e 40 -c 2 -a 0 -i 40 -k AGT
+ -t 1.442372910 -s 38 -d 9 -p tcp -e 60 -c 2 -a 0 -i 40 -k RTR 
- -t 1.442372910 -s 38 -d 9 -p tcp -e 60 -c 2 -a 0 -i 40 -k RTR
h -t 1.442372910 -s 38 -d 9 -p tcp -e 60 -c 2 -a 0 -i 40 -k RTR
r -t 1.455502428 -s 9 -d 9 -p tcp -e 60 -c 2 -a 0 -i 40 -k AGT
+ -t 1.455502428 -s 9 -d -1 -p ack -e 40 -c 2 -a 0 -i 41 -k AGT 
- -t 1.455502428 -s 9 -d -1 -p ack -e 40 -c 2 -a 0 -i 41 -k AGT
h -t 1.455502428 -s 9 -d -1 -p ack -e 40 -c 2 -a 0 -i 41 -k AGT
+ -t 1.459442693 -s 7 -d -1 -p tcp -e 40 -c 2 -a 0 -i 42 -k AGT 
- -t 1.459442693 -s 7 -d -1 -p tcp -e 40 -c 2 -a 0 -i 42 -k AGT
h -t 1.459442693 -s 7 -d -1 -p tcp -e 40 -c 2 -a 0 -i 42 -k AGT
+ -t 1.459442693 -s 7 -d 9 -p tcp -e 60 -c 2 -a 0 -i 42 -k RTR 
- -t 1.459442693 -s 7 -d 9 -p tcp -e 60 -c 2 -a 0 -i 42 -k RTR
h -t 1.459442693 -s 7 -d 9 -p tcp -e 60 -c 2 -a 0 -i 42 -k RTR
+ -t 1.462313712 -s 34 -d -1 -p tcp -e 1040 -c 2 -a 0 -i 43 -k AGT 
- -t 1.462313712 -s 34 -d -1 -p tcp -e 1040 -c 2 -a 0 -i 43 -k AGT
h -t 1.462313712 -s 34 -d -1 -p tcp -e 1040 -c 2 -a 0 -i 43 -k AGT
+ -t 1.462313712 -s 34 -d 9 -p tcp -e 1060 -c 2 -a 0 -i 43 -k RTR 
- -t 1.462313712 -s 34 -d 9 -p tcp -e 1060 -c 2 -a 0 -i 43 -k RTR
h -t 1.462313712 -s 34 -d 9 -p tcp -e 1060 -c 2 -a 0 -i 43 -k RTR
r -t 1.464613128 -s 9 -d 9 -p tcp -e 60 -c 2 -a 0 -i 42 -k AGT
+ -t 1.464613128 -s 9 -d -1 -p ack -e 40 -c 2 -a 0 -i 44 -k AGT 
- -t 1.464613128 -s 9 -d -1 -p ack -e 40 -c 2 -a 0 -i 44 -k AGT
h -t 1.464613128 -s 9 -d -1 -p ack -e 40 -c 2 -a 0 -i 44 -k AGT
r -t 1.467164006 -s 9 -d 9 -p tcp -e 36 -c 2 -a 0 -i 43 -k AGT
+ -t 1.467164006 -s 9 -d -1 -p ack -e 40 -c 2 -a 0 -i 45 -k AGT 
- -t 1.467164006 -s 9 -d -1 -p ack -e 40 -c 2 -a 0 -i 45 -k AGT
h -t 1.467164006 -s 9 -d -1 -p ack -e 40 -c 2 -a 0 -i 45 -k AGT
+ -t 1.467164006 -s 9 -d 34 -p ack -e 60 -c 2 -a 0 -i 45 -k RTR 
- -t 1.467164006 -s 9 -d 34 -p ack -e 60 -c 2 -a 0 -i 45 -k RTR
h -t 1.467164006 -s 9 -d 34 -p ack -e 60 -c 2 -a 0 -i 45 -k RTR
r -t 1.472014300 -s 34 -d 34 -p ack -e 60 -c 2 -a 0 -i 45 -k AGT
+ -t 1.477312469 -s 21 -d -1 -p message -e 32 -c 2 -a 0 -i 46 -k RTR 
- -t 1.477312469 -s 21 -d -1 -p message -e 32 -c 2 -a 0 -i 46 -k RTR
h -t 1.477312469 -s 21 -d -1 -p message -e 32 -c 2 -a 0 -i 46 -k RTR
r -t 1.482002777 -s 20 -d -1 -p message -e 32 -c 2 -a 0 -i 46 -k RTR
+ -t 1.514826028 -s 5 -d -1 -p message -e 32 -c 2 -a 0 -i 47 -k RTR 
- -t 1.514826028 -s 5 -d -1 -p message -e 32 -c 2 -a 0 -i 47 -k RTR
h -t 1.514826028 -s 5 -d -1 -p message -e 32 -c 2 -a 0 -i 47 -k RTR
r -t 1.518876307 -s 37 -d -1 -p message -e 32 -c 2 -a 0 -i 47 -k RTR
r -t 1.518876733 -s 2 -d -1 -p message -e 32 -c 2 -a 0 -i 47 -k RTR
+ -t 1.582469288 -s 7 -d -1 -p message -e 32 -c 2 -a 0 -i 48 -k RTR 
- -t 1.582469288 -s 7 -d -1 -p message -e 32 -c 2 -a 0 -i 48 -k RTR
h -t 1.582469288 -s 7 -d -1 -p message -e 32 -c 2 -a 0 -i 48 -k RTR
r -t 1.585879710 -s 29 -d -1 -p message -e 32 -c 2 -a 0 -i 48 -k RTR
r -t 1.585879723 -s 9 -d -1 -p message -e 32 -c 2 -a 0 -i 48 -k RTR
+ -t 1.585879723 -s 9 -d 7 -p ack -e 80 -c 2 -a 0 -i 37 -k RTR 
- -t 1.585879723 -s 9 -d 7 -p ack -e 80 -c 2 -a 0 -i 37 -k RTR
h -t 1.585879723 -s 9 -d 7 -p ack -e 80 -c 2 -a 0 -i 37 -k RTR
+ -t 1.585879723 -s 9 -d 7 -p ack -e 80 -c 2 -a 0 -i 44 -k RTR 
- -t 1.585879723 -s 9 -d 7 -p ack -e 80 -c 2 -a 0 -i 44 -k RTR
h -t 1.585879723 -s 9 -d 7 -p ack -e 80 -c 2 -a 0 -i 44 -k RTR
r -t 1.585879743 -s 13 -d -1 -p message -e 32 -c 2 -a 0 -i 48 -k RTR
r -t 1.585879844 -s 8 -d -1 -p message -e 32 -c 2 -a 0 -i 48 -k RTR
r -t 1.585879894 -s 12 -d -1 -p message -e 32 -c 2 -a 0 -i 48 -k RTR
r -t 1.585879946 -s 1 -d -1 -p message -e 32 -c 2 -a 0 -i 48 -k RTR
r -t 1.585879976 -s 34 -d -1 -p message -e 32 -c 2 -a 0 -i 48 -k RTR
r -t 1.585879978 -s 35 -d -1 -p message -e 32 -c 2 -a 0 -i 48 -k RTR
r -t 1.585880009 -s 38 -d -1 -p message -e 32 -c 2 -a 0 -i 48 -k RTR
+ -t 1.591798384 -s 38 -d -1 -p message -e 32 -c 2 -a 0 -i 49 -k RTR 
- -t 1.591798384 -s 38 -d -1 -p message -e 32 -c 2 -a 0 -i 49 -k RTR
h -t 1.591798384 -s 38 -d -1 -p message -e 32 -c 2 -a 0 -i 49 -k RTR
r -t 1.592650159 -s 7 -d 7 -p ack -e 80 -c 2 -a 0 -i 37 -k AGT
+ -t 1.592650159 -s 7 -d -1 -p tcp -e 1040 -c 2 -a 0 -i 50 -k AGT 
- -t 1.592650159 -s 7 -d -1 -p tcp -e 1040 -c 2 -a 0 -i 50 -k AGT
h -t 1.592650159 -s 7 -d -1 -p tcp -e 1040 -c 2 -a 0 -i 50 -k AGT
+ -t 1.592650159 -s 7 -d 9 -p tcp -e 1060 -c 2 -a 0 -i 50 -k RTR 
- -t 1.592650159 -s 7 -d 9 -p tcp -e 1060 -c 2 -a 0 -i 50 -k RTR
h -t 1.592650159 -s 7 -d 9 -p tcp -e 1060 -c 2 -a 0 -i 50 -k RTR
r -t 1.595208680 -s 39 -d -1 -p message -e 32 -c 2 -a 0 -i 49 -k RTR
r -t 1.595208894 -s 33 -d -1 -p message -e 32 -c 2 -a 0 -i 49 -k RTR
r -t 1.603531030 -s 7 -d 7 -p ack -e 80 -c 2 -a 0 -i 44 -k AGT
+ -t 1.603531030 -s 7 -d -1 -p tcp -e 1040 -c 2 -a 0 -i 51 -k AGT 
- -t 1.603531030 -s 7 -d -1 -p tcp -e 1040 -c 2 -a 0 -i 51 -k AGT
h -t 1.603531030 -s 7 -d -1 -p tcp -e 1040 -c 2 -a 0 -i 51 -k AGT
+ -t 1.603531030 -s 7 -d 9 -p tcp -e 1060 -c 2 -a 0 -i 51 -k RTR 
- -t 1.603531030 -s 7 -d 9 -p tcp -e 1060 -c 2 -a 0 -i 51 -k RTR
h -t 1.603531030 -s 7 -d 9 -p tcp -e 1060 -c 2 -a 0 -i 51 -k RTR
r -t 1.606923466 -s 9 -d 9 -p tcp -e 36 -c 2 -a 0 -i 50 -k AGT
+ -t 1.606923466 -s 9 -d -1 -p ack -e 40 -c 2 -a 0 -i 52 -k AGT 
- -t 1.606923466 -s 9 -d -1 -p ack -e 40 -c 2 -a 0 -i 52 -k AGT
h -t 1.606923466 -s 9 -d -1 -p ack -e 40 -c 2 -a 0 -i 52 -k AGT
+ -t 1.606923466 -s 9 -d 7 -p ack -e 60 -c 2 -a 0 -i 52 -k RTR 
- -t 1.606923466 -s 9 -d 7 -p ack -e 60 -c 2 -a 0 -i 52 -k RTR
h -t 1.606923466 -s 9 -d 7 -p ack -e 60 -c 2 -a 0 -i 52 -k RTR
r -t 1.610813902 -s 7 -d 7 -p ack -e 60 -c 2 -a 0 -i 52 -k AGT
r -t 1.614846338 -s 9 -d 9 -p tcp -e 36 -c 2 -a 0 -i 51 -k AGT
+ -t 1.614846338 -s 9 -d -1 -p ack -e 40 -c 2 -a 0 -i 54 -k AGT 
- -t 1.614846338 -s 9 -d -1 -p ack -e 40 -c 2 -a 0 -i 54 -k AGT
h -t 1.614846338 -s 9 -d -1 -p ack -e 40 -c 2 -a 0 -i 54 -k AGT
+ -t 1.614846338 -s 9 -d 7 -p ack -e 60 -c 2 -a 0 -i 54 -k RTR 
- -t 1.614846338 -s 9 -d 7 -p ack -e 60 -c 2 -a 0 -i 54 -k RTR
h -t 1.614846338 -s 9 -d 7 -p ack -e 60 -c 2 -a 0 -i 54 -k RTR
+ -t 1.619150369 -s 2 -d -1 -p message -e 32 -c 2 -a 0 -i 53 -k RTR 
- -t 1.619150369 -s 2 -d -1 -p message -e 32 -c 2 -a 0 -i 53 -k RTR
h -t 1.619150369 -s 2 -d -1 -p message -e 32 -c 2 -a 0 -i 53 -k RTR
r -t 1.619376774 -s 7 -d 7 -p ack -e 60 -c 2 -a 0 -i 54 -k AGT
r -t 1.621920897 -s 37 -d -1 -p message -e 32 -c 2 -a 0 -i 53 -k RTR
r -t 1.621921073 -s 5 -d -1 -p message -e 32 -c 2 -a 0 -i 53 -k RTR
r -t 1.621921142 -s 12 -d -1 -p message -e 32 -c 2 -a 0 -i 53 -k RTR
+ -t 1.641620394 -s 34 -d -1 -p tcp -e 1040 -c 2 -a 0 -i 55 -k AGT 