n -t * -s 0  -x 144 -y 302 -Z 0 -z 20  -v circle -c black
n -t * -s 1  -x 482 -y 385 -Z 0 -z 20  -v circle -c black
n -t * -s 2  -x 362 -y 176 -Z 0 -z 20  -v circle -c black
n -t * -s 3  -x 142 -y 243 -Z 0 -z 20  -v circle -c black
n -t * -s 4  -x 134 -y 53 -Z 0 -z 20  -v circle -c black
n -t * -s 5  -x 397 -y 99 -Z 0 -z 20  -v circle -c black
n -t * -s 6  -x 10 -y 268 -Z 0 -z 20  -v circle -c black
n -t * -s 7  -x 429 -y 327 -Z 0 -z 20  -v circle -c black
n -t * -s 8  -x 451 -y 264 -Z 0 -z 20  -v circle -c black
n -t * -s 9  -x 397 -y 369 -Z 0 -z 20  -v circle -c black
n -t * -s 10  -x 49 -y 490 -Z 0 -z 20  -v circle -c black
n -t * -s 11  -x 326 -y 277 -Z 0 -z 20  -v circle -c black
n -t * -s 12  -x 393 -y 264 -Z 0 -z 20  -v circle -c black
n -t * -s 13  -x 384 -y 359 -Z 0 -z 20  -v circle -c black
n -t * -s 14  -x 101 -y 229 -Z 0 -z 20  -v circle -c black
n -t * -s 15  -x 141 -y 78 -Z 0 -z 20  -v circle -c black
n -t * -s 16  -x 450 -y 500 -Z 0 -z 20  -v circle -c black
n -t * -s 17  -x 192 -y 351 -Z 0 -z 20  -v circle -c black
n -t * -s 18  -x 150 -y 57 -Z 0 -z 20  -v circle -c black
n -t * -s 19  -x 481 -y 8 -Z 0 -z 20  -v circle -c black
n -t * -s 20  -x 240 -y 48 -Z 0 -z 20  -v circle -c black
n -t * -s 21  -x 276 -y 42 -Z 0 -z 20  -v circle -c black
n -t * -s 22  -x 72 -y 470 -Z 0 -z 20  -v circle -c black
n -t * -s 23  -x 33 -y 202 -Z 0 -z 20  -v circle -c black
n -t * -s 24  -x 150 -y 95 -Z 0 -z 20  -v circle -c black
n -t * -s 25  -x 44 -y 58 -Z 0 -z 20  -v circle -c black
n -t * -s 26  -x 40 -y 236 -Z 0 -z 20  -v circle -c black
n -t * -s 27  -x 242 -y 148 -Z 0 -z 20  -v circle -c black
n -t * -s 28  -x 96 -y 19 -Z 0 -z 20  -v circle -c black
n -t * -s 29  -x 468 -y 295 -Z 0 -z 20  -v circle -c black
n -t * -s 30  -x 275 -y 470 -Z 0 -z 20  -v circle -c black
n -t * -s 31  -x 492 -y 15 -Z 0 -z 20  -v circle -c black
n -t * -s 32  -x 8 -y 264 -Z 0 -z 20  -v circle -c black
n -t * -s 33  -x 435 -y 474 -Z 0 -z 20  -v circle -c black
n -t * -s 34  -x 398 -y 404 -Z 0 -z 20  -v circle -c black
n -t * -s 35  -x 472 -y 256 -Z 0 -z 20  -v circle -c black
n -t * -s 36  -x 248 -y 482 -Z 0 -z 20  -v circle -c black
n -t * -s 37  -x 408 -y 132 -Z 0 -z 20  -v circle -c black
n -t * -s 38  -x 438 -y 413 -Z 0 -z 20  -v circle -c black
n -t * -s 39  -x 469 -y 432 -Z 0 -z 20  -v circle -c black
V -t * -v 1.0a5 -a 0
W -t * -x 500 -y 500
A -t * -n 1 -p 0 -o 0x7fffffff -c 30 -a 1
A -t * -h 1 -m 1073741823 -s 0
+ -t 0.081065904 -s 11 -d -1 -p message -e 32 -c 2 -a 0 -i 0 -k RTR 
- -t 0.081065904 -s 11 -d -1 -p message -e 32 -c 2 -a 0 -i 0 -k RTR
h -t 0.081065904 -s 11 -d -1 -p message -e 32 -c 2 -a 0 -i 0 -k RTR
r -t 0.085436132 -s 12 -d -1 -p message -e 32 -c 2 -a 0 -i 0 -k RTR
r -t 0.085436239 -s 13 -d -1 -p message -e 32 -c 2 -a 0 -i 0 -k RTR
r -t 0.085436262 -s 2 -d -1 -p message -e 32 -c 2 -a 0 -i 0 -k RTR
r -t 0.085436286 -s 7 -d -1 -p message -e 32 -c 2 -a 0 -i 0 -k RTR
r -t 0.085436292 -s 9 -d -1 -p message -e 32 -c 2 -a 0 -i 0 -k RTR
r -t 0.085436323 -s 8 -d -1 -p message -e 32 -c 2 -a 0 -i 0 -k RTR
r -t 0.085436381 -s 29 -d -1 -p message -e 32 -c 2 -a 0 -i 0 -k RTR
r -t 0.085436391 -s 34 -d -1 -p message -e 32 -c 2 -a 0 -i 0 -k RTR
r -t 0.085436396 -s 35 -d -1 -p message -e 32 -c 2 -a 0 -i 0 -k RTR
r -t 0.085436415 -s 17 -d -1 -p message -e 32 -c 2 -a 0 -i 0 -k RTR
r -t 0.085436417 -s 27 -d -1 -p message -e 32 -c 2 -a 0 -i 0 -k RTR
r -t 0.085436460 -s 37 -d -1 -p message -e 32 -c 2 -a 0 -i 0 -k RTR
r -t 0.085436492 -s 38 -d -1 -p message -e 32 -c 2 -a 0 -i 0 -k RTR
r -t 0.085436517 -s 0 -d -1 -p message -e 32 -c 2 -a 0 -i 0 -k RTR
r -t 0.085436528 -s 3 -d -1 -p message -e 32 -c 2 -a 0 -i 0 -k RTR
r -t 0.085436537 -s 1 -d -1 -p message -e 32 -c 2 -a 0 -i 0 -k RTR
r -t 0.085436543 -s 5 -d -1 -p message -e 32 -c 2 -a 0 -i 0 -k RTR
r -t 0.085436570 -s 30 -d -1 -p message -e 32 -c 2 -a 0 -i 0 -k RTR
r -t 0.085436607 -s 39 -d -1 -p message -e 32 -c 2 -a 0 -i 0 -k RTR
r -t 0.085436635 -s 36 -d -1 -p message -e 32 -c 2 -a 0 -i 0 -k RTR
r -t 0.085436655 -s 33 -d -1 -p message -e 32 -c 2 -a 0 -i 0 -k RTR
r -t 0.085436671 -s 14 -d -1 -p message -e 32 -c 2 -a 0 -i 0 -k RTR
r -t 0.085436705 -s 21 -d -1 -p message -e 32 -c 2 -a 0 -i 0 -k RTR
r -t 0.085436720 -s 20 -d -1 -p message -e 32 -c 2 -a 0 -i 0 -k RTR
+ -t 0.119014394 -s 16 -d -1 -p message -e 32 -c 2 -a 0 -i 1 -k RTR 
- -t 0.119014394 -s 16 -d -1 -p message -e 32 -c 2 -a 0 -i 1 -k RTR
h -t 0.119014394 -s 16 -d -1 -p message -e 32 -c 2 -a 0 -i 1 -k RTR
r -t 0.123704494 -s 33 -d -1 -p message -e 32 -c 2 -a 0 -i 1 -k RTR
r -t 0.123704630 -s 39 -d -1 -p message -e 32 -c 2 -a 0 -i 1 -k RTR
r -t 0.123704687 -s 38 -d -1 -p message -e 32 -c 2 -a 0 -i 1 -k RTR
r -t 0.123704758 -s 34 -d -1 -p message -e 32 -c 2 -a 0 -i 1 -k RTR
r -t 0.123704792 -s 1 -d -1 -p message -e 32 -c 2 -a 0 -i 1 -k RTR
r -t 0.123704865 -s 9 -d -1 -p message -e 32 -c 2 -a 0 -i 1 -k RTR
r -t 0.123704913 -s 13 -d -1 -p message -e 32 -c 2 -a 0 -i 1 -k RTR
r -t 0.123704975 -s 7 -d -1 -p message -e 32 -c 2 -a 0 -i 1 -k RTR
r -t 0.123704986 -s 30 -d -1 -p message -e 32 -c 2 -a 0 -i 1 -k RTR
r -t 0.123705070 -s 36 -d -1 -p message -e 32 -c 2 -a 0 -i 1 -k RTR
r -t 0.123705080 -s 29 -d -1 -p message -e 32 -c 2 -a 0 -i 1 -k RTR
r -t 0.123705181 -s 8 -d -1 -p message -e 32 -c 2 -a 0 -i 1 -k RTR
r -t 0.123705204 -s 12 -d -1 -p message -e 32 -c 2 -a 0 -i 1 -k RTR
r -t 0.123705211 -s 35 -d -1 -p message -e 32 -c 2 -a 0 -i 1 -k RTR
+ -t 0.135095336 -s 8 -d -1 -p message -e 32 -c 2 -a 0 -i 2 -k RTR 
- -t 0.135095336 -s 8 -d -1 -p message -e 32 -c 2 -a 0 -i 2 -k RTR
h -t 0.135095336 -s 8 -d -1 -p message -e 32 -c 2 -a 0 -i 2 -k RTR
r -t 0.138825410 -s 35 -d -1 -p message -e 32 -c 2 -a 0 -i 2 -k RTR
r -t 0.138825453 -s 29 -d -1 -p message -e 32 -c 2 -a 0 -i 2 -k RTR
r -t 0.138825529 -s 12 -d -1 -p message -e 32 -c 2 -a 0 -i 2 -k RTR
r -t 0.138825558 -s 7 -d -1 -p message -e 32 -c 2 -a 0 -i 2 -k RTR
r -t 0.138825723 -s 13 -d -1 -p message -e 32 -c 2 -a 0 -i 2 -k RTR
r -t 0.138825729 -s 9 -d -1 -p message -e 32 -c 2 -a 0 -i 2 -k RTR
r -t 0.138825752 -s 1 -d -1 -p message -e 32 -c 2 -a 0 -i 2 -k RTR
r -t 0.138825753 -s 2 -d -1 -p message -e 32 -c 2 -a 0 -i 2 -k RTR
r -t 0.138825754 -s 11 -d -1 -p message -e 32 -c 2 -a 0 -i 2 -k RTR
r -t 0.138825798 -s 37 -d -1 -p message -e 32 -c 2 -a 0 -i 2 -k RTR
r -t 0.138825834 -s 38 -d -1 -p message -e 32 -c 2 -a 0 -i 2 -k RTR
r -t 0.138825835 -s 34 -d -1 -p message -e 32 -c 2 -a 0 -i 2 -k RTR
r -t 0.138825899 -s 39 -d -1 -p message -e 32 -c 2 -a 0 -i 2 -k RTR
r -t 0.138825914 -s 5 -d -1 -p message -e 32 -c 2 -a 0 -i 2 -k RTR
r -t 0.138826038 -s 33 -d -1 -p message -e 32 -c 2 -a 0 -i 2 -k RTR
r -t 0.138826122 -s 16 -d -1 -p message -e 32 -c 2 -a 0 -i 2 -k RTR
r -t 0.138826132 -s 27 -d -1 -p message -e 32 -c 2 -a 0 -i 2 -k RTR
+ -t 0.141515659 -s 32 -d -1 -p message -e 32 -c 2 -a 0 -i 3 -k RTR 
- -t 0.141515659 -s 32 -d -1 -p message -e 32 -c 2 -a 0 -i 3 -k RTR
h -t 0.141515659 -s 32 -d -1 -p message -e 32 -c 2 -a 0 -i 3 -k RTR
r -t 0.145565674 -s 6 -d -1 -p message -e 32 -c 2 -a 0 -i 3 -k RTR
r -t 0.145565800 -s 26 -d -1 -p message -e 32 -c 2 -a 0 -i 3 -k RTR
r -t 0.145565882 -s 23 -d -1 -p message -e 32 -c 2 -a 0 -i 3 -k RTR
r -t 0.145565990 -s 14 -d -1 -p message -e 32 -c 2 -a 0 -i 3 -k RTR
r -t 0.145566111 -s 3 -d -1 -p message -e 32 -c 2 -a 0 -i 3 -k RTR
r -t 0.145566129 -s 0 -d -1 -p message -e 32 -c 2 -a 0 -i 3 -k RTR
r -t 0.145566337 -s 17 -d -1 -p message -e 32 -c 2 -a 0 -i 3 -k RTR
r -t 0.145566356 -s 25 -d -1 -p message -e 32 -c 2 -a 0 -i 3 -k RTR
r -t 0.145566378 -s 22 -d -1 -p message -e 32 -c 2 -a 0 -i 3 -k RTR
r -t 0.145566395 -s 24 -d -1 -p message -e 32 -c 2 -a 0 -i 3 -k RTR
r -t 0.145566421 -s 15 -d -1 -p message -e 32 -c 2 -a 0 -i 3 -k RTR
r -t 0.145566424 -s 10 -d -1 -p message -e 32 -c 2 -a 0 -i 3 -k RTR
r -t 0.145566478 -s 4 -d -1 -p message -e 32 -c 2 -a 0 -i 3 -k RTR
+ -t 0.304003514 -s 28 -d -1 -p message -e 32 -c 2 -a 0 -i 4 -k RTR 
- -t 0.304003514 -s 28 -d -1 -p message -e 32 -c 2 -a 0 -i 4 -k RTR
h -t 0.304003514 -s 28 -d -1 -p message -e 32 -c 2 -a 0 -i 4 -k RTR
r -t 0.307093684 -s 4 -d -1 -p message -e 32 -c 2 -a 0 -i 4 -k RTR
r -t 0.307093731 -s 25 -d -1 -p message -e 32 -c 2 -a 0 -i 4 -k RTR
r -t 0.307093734 -s 18 -d -1 -p message -e 32 -c 2 -a 0 -i 4 -k RTR
r -t 0.307093762 -s 15 -d -1 -p message -e 32 -c 2 -a 0 -i 4 -k RTR
r -t 0.307093825 -s 24 -d -1 -p message -e 32 -c 2 -a 0 -i 4 -k RTR
r -t 0.307094004 -s 20 -d -1 -p message -e 32 -c 2 -a 0 -i 4 -k RTR
r -t 0.307094119 -s 21 -d -1 -p message -e 32 -c 2 -a 0 -i 4 -k RTR
r -t 0.307094159 -s 23 -d -1 -p message -e 32 -c 2 -a 0 -i 4 -k RTR
r -t 0.307094164 -s 27 -d -1 -p message -e 32 -c 2 -a 0 -i 4 -k RTR
r -t 0.307094215 -s 14 -d -1 -p message -e 32 -c 2 -a 0 -i 4 -k RTR
r -t 0.307094261 -s 26 -d -1 -p message -e 32 -c 2 -a 0 -i 4 -k RTR
r -t 0.307094277 -s 3 -d -1 -p message -e 32 -c 2 -a 0 -i 4 -k RTR
+ -t 0.317566595 -s 6 -d -1 -p message -e 32 -c 2 -a 0 -i 5 -k RTR 
- -t 0.317566595 -s 6 -d -1 -p message -e 32 -c 2 -a 0 -i 5 -k RTR
h -t 0.317566595 -s 6 -d -1 -p message -e 32 -c 2 -a 0 -i 5 -k RTR
r -t 0.320976610 -s 32 -d -1 -p message -e 32 -c 2 -a 0 -i 5 -k RTR
r -t 0.320976742 -s 26 -d -1 -p message -e 32 -c 2 -a 0 -i 5 -k RTR
r -t 0.320976828 -s 23 -d -1 -p message -e 32 -c 2 -a 0 -i 5 -k RTR
r -t 0.320976926 -s 14 -d -1 -p message -e 32 -c 2 -a 0 -i 5 -k RTR
r -t 0.320977043 -s 3 -d -1 -p message -e 32 -c 2 -a 0 -i 5 -k RTR
r -t 0.320977056 -s 0 -d -1 -p message -e 32 -c 2 -a 0 -i 5 -k RTR
r -t 0.320977262 -s 17 -d -1 -p message -e 32 -c 2 -a 0 -i 5 -k RTR
r -t 0.320977300 -s 22 -d -1 -p message -e 32 -c 2 -a 0 -i 5 -k RTR
r -t 0.320977305 -s 25 -d -1 -p message -e 32 -c 2 -a 0 -i 5 -k RTR
r -t 0.320977337 -s 24 -d -1 -p message -e 32 -c 2 -a 0 -i 5 -k RTR
r -t 0.320977347 -s 10 -d -1 -p message -e 32 -c 2 -a 0 -i 5 -k RTR
r -t 0.320977365 -s 15 -d -1 -p message -e 32 -c 2 -a 0 -i 5 -k RTR
r -t 0.320977423 -s 4 -d -1 -p message -e 32 -c 2 -a 0 -i 5 -k RTR
+ -t 0.353923107 -s 9 -d -1 -p message -e 32 -c 2 -a 0 -i 6 -k RTR 
- -t 0.353923107 -s 9 -d -1 -p message -e 32 -c 2 -a 0 -i 6 -k RTR
h -t 0.353923107 -s 9 -d -1 -p message -e 32 -c 2 -a 0 -i 6 -k RTR
r -t 0.356693162 -s 13 -d -1 -p message -e 32 -c 2 -a 0 -i 6 -k RTR
r -t 0.356693224 -s 34 -d -1 -p message -e 32 -c 2 -a 0 -i 6 -k RTR
r -t 0.356693283 -s 7 -d -1 -p message -e 32 -c 2 -a 0 -i 6 -k RTR
r -t 0.356693308 -s 38 -d -1 -p message -e 32 -c 2 -a 0 -i 6 -k RTR
r -t 0.356693396 -s 1 -d -1 -p message -e 32 -c 2 -a 0 -i 6 -k RTR
r -t 0.356693426 -s 39 -d -1 -p message -e 32 -c 2 -a 0 -i 6 -k RTR
r -t 0.356693449 -s 29 -d -1 -p message -e 32 -c 2 -a 0 -i 6 -k RTR
r -t 0.356693457 -s 12 -d -1 -p message -e 32 -c 2 -a 0 -i 6 -k RTR
r -t 0.356693479 -s 33 -d -1 -p message -e 32 -c 2 -a 0 -i 6 -k RTR
r -t 0.356693495 -s 11 -d -1 -p message -e 32 -c 2 -a 0 -i 6 -k RTR
r -t 0.356693501 -s 8 -d -1 -p message -e 32 -c 2 -a 0 -i 6 -k RTR
r -t 0.356693559 -s 35 -d -1 -p message -e 32 -c 2 -a 0 -i 6 -k RTR
r -t 0.356693578 -s 16 -d -1 -p message -e 32 -c 2 -a 0 -i 6 -k RTR
r -t 0.356693635 -s 30 -d -1 -p message -e 32 -c 2 -a 0 -i 6 -k RTR
r -t 0.356693731 -s 36 -d -1 -p message -e 32 -c 2 -a 0 -i 6 -k RTR
r -t 0.356693761 -s 2 -d -1 -p message -e 32 -c 2 -a 0 -i 6 -k RTR
r -t 0.356693793 -s 17 -d -1 -p message -e 32 -c 2 -a 0 -i 6 -k RTR
r -t 0.356693898 -s 37 -d -1 -p message -e 32 -c 2 -a 0 -i 6 -k RTR
+ -t 0.460744913 -s 14 -d -1 -p message -e 32 -c 2 -a 0 -i 7 -k RTR 
- -t 0.460744913 -s 14 -d -1 -p message -e 32 -c 2 -a 0 -i 7 -k RTR
h -t 0.460744913 -s 14 -d -1 -p message -e 32 -c 2 -a 0 -i 7 -k RTR
r -t 0.464795057 -s 3 -d -1 -p message -e 32 -c 2 -a 0 -i 7 -k RTR
r -t 0.464795117 -s 26 -d -1 -p message -e 32 -c 2 -a 0 -i 7 -k RTR
r -t 0.464795157 -s 23 -d -1 -p message -e 32 -c 2 -a 0 -i 7 -k RTR
r -t 0.464795195 -s 0 -d -1 -p message -e 32 -c 2 -a 0 -i 7 -k RTR
r -t 0.464795243 -s 6 -d -1 -p message -e 32 -c 2 -a 0 -i 7 -k RTR
r -t 0.464795244 -s 32 -d -1 -p message -e 32 -c 2 -a 0 -i 7 -k RTR
r -t 0.464795388 -s 24 -d -1 -p message -e 32 -c 2 -a 0 -i 7 -k RTR
r -t 0.464795420 -s 17 -d -1 -p message -e 32 -c 2 -a 0 -i 7 -k RTR
r -t 0.464795433 -s 15 -d -1 -p message -e 32 -c 2 -a 0 -i 7 -k RTR
r -t 0.464795455 -s 27 -d -1 -p message -e 32 -c 2 -a 0 -i 7 -k RTR
r -t 0.464795509 -s 18 -d -1 -p message -e 32 -c 2 -a 0 -i 7 -k RTR
r -t 0.464795510 -s 4 -d -1 -p message -e 32 -c 2 -a 0 -i 7 -k RTR
r -t 0.464795514 -s 25 -d -1 -p message -e 32 -c 2 -a 0 -i 7 -k RTR
r -t 0.464795613 -s 28 -d -1 -p message -e 32 -c 2 -a 0 -i 7 -k RTR
r -t 0.464795673 -s 20 -d -1 -p message -e 32 -c 2 -a 0 -i 7 -k RTR
r -t 0.464795680 -s 11 -d -1 -p message -e 32 -c 2 -a 0 -i 7 -k RTR
r -t 0.464795722 -s 22 -d -1 -p message -e 32 -c 2 -a 0 -i 7 -k RTR
+ -t 0.466254199 -s 21 -d -1 -p message -e 32 -c 2 -a 0 -i 8 -k RTR 
- -t 0.466254199 -s 21 -d -1 -p message -e 32 -c 2 -a 0 -i 8 -k RTR
h -t 0.466254199 -s 21 -d -1 -p message -e 32 -c 2 -a 0 -i 8 -k RTR
r -t 0.469024321 -s 20 -d -1 -p message -e 32 -c 2 -a 0 -i 8 -k RTR
r -t 0.469024570 -s 27 -d -1 -p message -e 32 -c 2 -a 0 -i 8 -k RTR
r -t 0.469024622 -s 18 -d -1 -p message -e 32 -c 2 -a 0 -i 8 -k RTR
r -t 0.469024645 -s 5 -d -1 -p message -e 32 -c 2 -a 0 -i 8 -k RTR
r -t 0.469024655 -s 24 -d -1 -p message -e 32 -c 2 -a 0 -i 8 -k RTR
r -t 0.469024665 -s 15 -d -1 -p message -e 32 -c 2 -a 0 -i 8 -k RTR
r -t 0.469024674 -s 4 -d -1 -p message -e 32 -c 2 -a 0 -i 8 -k RTR
r -t 0.469024730 -s 2 -d -1 -p message -e 32 -c 2 -a 0 -i 8 -k RTR
r -t 0.469024732 -s 37 -d -1 -p message -e 32 -c 2 -a 0 -i 8 -k RTR
r -t 0.469024804 -s 28 -d -1 -p message -e 32 -c 2 -a 0 -i 8 -k RTR
r -t 0.469024892 -s 19 -d -1 -p message -e 32 -c 2 -a 0 -i 8 -k RTR
r -t 0.469024925 -s 31 -d -1 -p message -e 32 -c 2 -a 0 -i 8 -k RTR
r -t 0.469024975 -s 25 -d -1 -p message -e 32 -c 2 -a 0 -i 8 -k RTR
r -t 0.469025000 -s 11 -d -1 -p message -e 32 -c 2 -a 0 -i 8 -k RTR
r -t 0.469025005 -s 3 -d -1 -p message -e 32 -c 2 -a 0 -i 8 -k RTR
+ -t 0.476883667 -s 7 -d -1 -p message -e 32 -c 2 -a 0 -i 9 -k RTR 
- -t 0.476883667 -s 7 -d -1 -p message -e 32 -c 2 -a 0 -i 9 -k RTR
h -t 0.476883667 -s 7 -d -1 -p message -e 32 -c 2 -a 0 -i 9 -k RTR
r -t 0.480933835 -s 29 -d -1 -p message -e 32 -c 2 -a 0 -i 9 -k RTR
r -t 0.480933843 -s 9 -d -1 -p message -e 32 -c 2 -a 0 -i 9 -k RTR
r -t 0.480933851 -s 13 -d -1 -p message -e 32 -c 2 -a 0 -i 9 -k RTR
r -t 0.480933890 -s 8 -d -1 -p message -e 32 -c 2 -a 0 -i 9 -k RTR
r -t 0.480933909 -s 12 -d -1 -p message -e 32 -c 2 -a 0 -i 9 -k RTR
r -t 0.480933929 -s 1 -d -1 -p message -e 32 -c 2 -a 0 -i 9 -k RTR
r -t 0.480933944 -s 34 -d -1 -p message -e 32 -c 2 -a 0 -i 9 -k RTR
r -t 0.480933944 -s 35 -d -1 -p message -e 32 -c 2 -a 0 -i 9 -k RTR
r -t 0.480933955 -s 38 -d -1 -p message -e 32 -c 2 -a 0 -i 9 -k RTR
r -t 0.480934042 -s 39 -d -1 -p message -e 32 -c 2 -a 0 -i 9 -k RTR
r -t 0.480934049 -s 11 -d -1 -p message -e 32 -c 2 -a 0 -i 9 -k RTR
r -t 0.480934158 -s 33 -d -1 -p message -e 32 -c 2 -a 0 -i 9 -k RTR
r -t 0.480934218 -s 2 -d -1 -p message -e 32 -c 2 -a 0 -i 9 -k RTR
r -t 0.480934248 -s 16 -d -1 -p message -e 32 -c 2 -a 0 -i 9 -k RTR
r -t 0.480934321 -s 37 -d -1 -p message -e 32 -c 2 -a 0 -i 9 -k RTR
r -t 0.480934368 -s 30 -d -1 -p message -e 32 -c 2 -a 0 -i 9 -k RTR
r -t 0.480934435 -s 5 -d -1 -p message -e 32 -c 2 -a 0 -i 9 -k RTR
r -t 0.480934461 -s 17 -d -1 -p message -e 32 -c 2 -a 0 -i 9 -k RTR
r -t 0.480934461 -s 36 -d -1 -p message -e 32 -c 2 -a 0 -i 9 -k RTR
+ -t 0.533780695 -s 37 -d -1 -p message -e 32 -c 2 -a 0 -i 10 -k RTR 
- -t 0.533780695 -s 37 -d -1 -p message -e 32 -c 2 -a 0 -i 10 -k RTR
h -t 0.533780695 -s 37 -d -1 -p message -e 32 -c 2 -a 0 -i 10 -k RTR
r -t 0.536550810 -s 5 -d -1 -p message -e 32 -c 2 -a 0 -i 10 -k RTR
r -t 0.536550907 -s 2 -d -1 -p message -e 32 -c 2 -a 0 -i 10 -k RTR
r -t 0.536551137 -s 12 -d -1 -p message -e 32 -c 2 -a 0 -i 10 -k RTR
r -t 0.536551157 -s 8 -d -1 -p message -e 32 -c 2 -a 0 -i 10 -k RTR
r -t 0.536551160 -s 35 -d -1 -p message -e 32 -c 2 -a 0 -i 10 -k RTR
r -t 0.536551174 -s 19 -d -1 -p message -e 32 -c 2 -a 0 -i 10 -k RTR
r -t 0.536551175 -s 31 -d -1 -p message -e 32 -c 2 -a 0 -i 10 -k RTR
r -t 0.536551227 -s 21 -d -1 -p message -e 32 -c 2 -a 0 -i 10 -k RTR
r -t 0.536551250 -s 11 -d -1 -p message -e 32 -c 2 -a 0 -i 10 -k RTR
r -t 0.536551250 -s 27 -d -1 -p message -e 32 -c 2 -a 0 -i 10 -k RTR
r -t 0.536551274 -s 29 -d -1 -p message -e 32 -c 2 -a 0 -i 10 -k RTR
r -t 0.536551321 -s 20 -d -1 -p message -e 32 -c 2 -a 0 -i 10 -k RTR
r -t 0.536551348 -s 7 -d -1 -p message -e 32 -c 2 -a 0 -i 10 -k RTR
r -t 0.536551455 -s 13 -d -1 -p message -e 32 -c 2 -a 0 -i 10 -k RTR
r -t 0.536551485 -s 9 -d -1 -p message -e 32 -c 2 -a 0 -i 10 -k RTR
+ -t 0.687859004 -s 17 -d -1 -p message -e 32 -c 2 -a 0 -i 11 -k RTR 
- -t 0.687859004 -s 17 -d -1 -p message -e 32 -c 2 -a 0 -i 11 -k RTR
h -t 0.687859004 -s 17 -d -1 -p message -e 32 -c 2 -a 0 -i 11 -k RTR
r -t 0.692229232 -s 0 -d -1 -p message -e 32 -c 2 -a 0 -i 11 -k RTR
r -t 0.692229400 -s 3 -d -1 -p message -e 32 -c 2 -a 0 -i 11 -k RTR
r -t 0.692229479 -s 36 -d -1 -p message -e 32 -c 2 -a 0 -i 11 -k RTR
r -t 0.692229487 -s 30 -d -1 -p message -e 32 -c 2 -a 0 -i 11 -k RTR
r -t 0.692229511 -s 14 -d -1 -p message -e 32 -c 2 -a 0 -i 11 -k RTR
r -t 0.692229514 -s 11 -d -1 -p message -e 32 -c 2 -a 0 -i 11 -k RTR
r -t 0.692229567 -s 22 -d -1 -p message -e 32 -c 2 -a 0 -i 11 -k RTR
r -t 0.692229639 -s 26 -d -1 -p message -e 32 -c 2 -a 0 -i 11 -k RTR
r -t 0.692229644 -s 13 -d -1 -p message -e 32 -c 2 -a 0 -i 11 -k RTR
r -t 0.692229668 -s 10 -d -1 -p message -e 32 -c 2 -a 0 -i 11 -k RTR
r -t 0.692229671 -s 6 -d -1 -p message -e 32 -c 2 -a 0 -i 11 -k RTR
r -t 0.692229682 -s 32 -d -1 -p message -e 32 -c 2 -a 0 -i 11 -k RTR
r -t 0.692229690 -s 9 -d -1 -p message -e 32 -c 2 -a 0 -i 11 -k RTR
r -t 0.692229701 -s 27 -d -1 -p message -e 32 -c 2 -a 0 -i 11 -k RTR
r -t 0.692229713 -s 34 -d -1 -p message -e 32 -c 2 -a 0 -i 11 -k RTR
r -t 0.692229730 -s 23 -d -1 -p message -e 32 -c 2 -a 0 -i 11 -k RTR
r -t 0.692229734 -s 12 -d -1 -p message -e 32 -c 2 -a 0 -i 11 -k RTR
r -t 0.692229798 -s 7 -d -1 -p message -e 32 -c 2 -a 0 -i 11 -k RTR
r -t 0.692229817 -s 2 -d -1 -p message -e 32 -c 2 -a 0 -i 11 -k RTR
+ -t 0.823341127 -s 0 -d -1 -p message -e 32 -c 2 -a 0 -i 12 -k RTR 
- -t 0.823341127 -s 0 -d -1 -p message -e 32 -c 2 -a 0 -i 12 -k RTR
h -t 0.823341127 -s 0 -d -1 -p message -e 32 -c 2 -a 0 -i 12 -k RTR
r -t 0.827071324 -s 3 -d -1 -p message -e 32 -c 2 -a 0 -i 12 -k RTR
r -t 0.827071355 -s 17 -d -1 -p message -e 32 -c 2 -a 0 -i 12 -k RTR
r -t 0.827071409 -s 14 -d -1 -p message -e 32 -c 2 -a 0 -i 12 -k RTR
r -t 0.827071537 -s 26 -d -1 -p message -e 32 -c 2 -a 0 -i 12 -k RTR
r -t 0.827071588 -s 6 -d -1 -p message -e 32 -c 2 -a 0 -i 12 -k RTR
r -t 0.827071597 -s 32 -d -1 -p message -e 32 -c 2 -a 0 -i 12 -k RTR
r -t 0.827071625 -s 23 -d -1 -p message -e 32 -c 2 -a 0 -i 12 -k RTR
r -t 0.827071735 -s 27 -d -1 -p message -e 32 -c 2 -a 0 -i 12 -k RTR
r -t 0.827071736 -s 22 -d -1 -p message -e 32 -c 2 -a 0 -i 12 -k RTR
r -t 0.827071739 -s 11 -d -1 -p message -e 32 -c 2 -a 0 -i 12 -k RTR
r -t 0.827071817 -s 24 -d -1 -p message -e 32 -c 2 -a 0 -i 12 -k RTR
r -t 0.827071820 -s 36 -d -1 -p message -e 32 -c 2 -a 0 -i 12 -k RTR
r -t 0.827071829 -s 10 -d -1 -p message -e 32 -c 2 -a 0 -i 12 -k RTR
r -t 0.827071837 -s 30 -d -1 -p message -e 32 -c 2 -a 0 -i 12 -k RTR
r -t 0.827071873 -s 15 -d -1 -p message -e 32 -c 2 -a 0 -i 12 -k RTR
r -t 0.827071944 -s 18 -d -1 -p message -e 32 -c 2 -a 0 -i 12 -k RTR
r -t 0.827071949 -s 13 -d -1 -p message -e 32 -c 2 -a 0 -i 12 -k RTR
r -t 0.827071957 -s 4 -d -1 -p message -e 32 -c 2 -a 0 -i 12 -k RTR
+ -t 0.869518150 -s 20 -d -1 -p message -e 32 -c 2 -a 0 -i 13 -k RTR 
- -t 0.869518150 -s 20 -d -1 -p message -e 32 -c 2 -a 0 -i 13 -k RTR
h -t 0.869518150 -s 20 -d -1 -p message -e 32 -c 2 -a 0 -i 13 -k RTR
r -t 0.873888272 -s 21 -d -1 -p message -e 32 -c 2 -a 0 -i 13 -k RTR
r -t 0.873888452 -s 18 -d -1 -p message -e 32 -c 2 -a 0 -i 13 -k RTR
r -t 0.873888484 -s 27 -d -1 -p message -e 32 -c 2 -a 0 -i 13 -k RTR
r -t 0.873888489 -s 24 -d -1 -p message -e 32 -c 2 -a 0 -i 13 -k RTR
r -t 0.873888495 -s 15 -d -1 -p message -e 32 -c 2 -a 0 -i 13 -k RTR
r -t 0.873888504 -s 4 -d -1 -p message -e 32 -c 2 -a 0 -i 13 -k RTR
r -t 0.873888640 -s 28 -d -1 -p message -e 32 -c 2 -a 0 -i 13 -k RTR
r -t 0.873888701 -s 5 -d -1 -p message -e 32 -c 2 -a 0 -i 13 -k RTR
r -t 0.873888740 -s 2 -d -1 -p message -e 32 -c 2 -a 0 -i 13 -k RTR
r -t 0.873888776 -s 37 -d -1 -p message -e 32 -c 2 -a 0 -i 13 -k RTR
r -t 0.873888804 -s 25 -d -1 -p message -e 32 -c 2 -a 0 -i 13 -k RTR
r -t 0.873888878 -s 3 -d -1 -p message -e 32 -c 2 -a 0 -i 13 -k RTR
r -t 0.873888911 -s 14 -d -1 -p message -e 32 -c 2 -a 0 -i 13 -k RTR
r -t 0.873888965 -s 19 -d -1 -p message -e 32 -c 2 -a 0 -i 13 -k RTR
r -t 0.873888966 -s 11 -d -1 -p message -e 32 -c 2 -a 0 -i 13 -k RTR
+ -t 0.888004996 -s 22 -d -1 -p message -e 32 -c 2 -a 0 -i 14 -k RTR 
- -t 0.888004996 -s 22 -d -1 -p message -e 32 -c 2 -a 0 -i 14 -k RTR
h -t 0.888004996 -s 22 -d -1 -p message -e 32 -c 2 -a 0 -i 14 -k RTR
r -t 0.892695098 -s 10 -d -1 -p message -e 32 -c 2 -a 0 -i 14 -k RTR
r -t 0.892695559 -s 17 -d -1 -p message -e 32 -c 2 -a 0 -i 14 -k RTR
r -t 0.892695584 -s 36 -d -1 -p message -e 32 -c 2 -a 0 -i 14 -k RTR
r -t 0.892695605 -s 0 -d -1 -p message -e 32 -c 2 -a 0 -i 14 -k RTR
r -t 0.892695673 -s 30 -d -1 -p message -e 32 -c 2 -a 0 -i 14 -k RTR
r -t 0.892695700 -s 6 -d -1 -p message -e 32 -c 2 -a 0 -i 14 -k RTR
r -t 0.892695715 -s 32 -d -1 -p message -e 32 -c 2 -a 0 -i 14 -k RTR
r -t 0.892695783 -s 26 -d -1 -p message -e 32 -c 2 -a 0 -i 14 -k RTR
r -t 0.892695788 -s 3 -d -1 -p message -e 32 -c 2 -a 0 -i 14 -k RTR
r -t 0.892695805 -s 14 -d -1 -p message -e 32 -c 2 -a 0 -i 14 -k RTR
+ -t 0.920026829 -s 24 -d -1 -p message -e 32 -c 2 -a 0 -i 15 -k RTR 
- -t 0.920026829 -s 24 -d -1 -p message -e 32 -c 2 -a 0 -i 15 -k RTR
h -t 0.920026829 -s 24 -d -1 -p message -e 32 -c 2 -a 0 -i 15 -k RTR
r -t 0.923436893 -s 15 -d -1 -p message -e 32 -c 2 -a 0 -i 15 -k RTR
r -t 0.923436955 -s 18 -d -1 -p message -e 32 -c 2 -a 0 -i 15 -k RTR
r -t 0.923436978 -s 4 -d -1 -p message -e 32 -c 2 -a 0 -i 15 -k RTR
r -t 0.923437139 -s 28 -d -1 -p message -e 32 -c 2 -a 0 -i 15 -k RTR
r -t 0.923437167 -s 20 -d -1 -p message -e 32 -c 2 -a 0 -i 15 -k RTR
r -t 0.923437182 -s 27 -d -1 -p message -e 32 -c 2 -a 0 -i 15 -k RTR
r -t 0.923437203 -s 25 -d -1 -p message -e 32 -c 2 -a 0 -i 15 -k RTR
r -t 0.923437284 -s 21 -d -1 -p message -e 32 -c 2 -a 0 -i 15 -k RTR
r -t 0.923437304 -s 14 -d -1 -p message -e 32 -c 2 -a 0 -i 15 -k RTR
r -t 0.923437323 -s 3 -d -1 -p message -e 32 -c 2 -a 0 -i 15 -k RTR
r -t 0.923437357 -s 23 -d -1 -p message -e 32 -c 2 -a 0 -i 15 -k RTR
r -t 0.923437425 -s 26 -d -1 -p message -e 32 -c 2 -a 0 -i 15 -k RTR
r -t 0.923437519 -s 0 -d -1 -p message -e 32 -c 2 -a 0 -i 15 -k RTR
r -t 0.923437564 -s 32 -d -1 -p message -e 32 -c 2 -a 0 -i 15 -k RTR
r -t 0.923437570 -s 6 -d -1 -p message -e 32 -c 2 -a 0 -i 15 -k RTR
r -t 0.923437585 -s 2 -d -1 -p message -e 32 -c 2 -a 0 -i 15 -k RTR
r -t 0.923437652 -s 5 -d -1 -p message -e 32 -c 2 -a 0 -i 15 -k RTR
+ -t 0.963723742 -s 38 -d -1 -p message -e 32 -c 2 -a 0 -i 16 -k RTR 
- -t 0.963723742 -s 38 -d -1 -p message -e 32 -c 2 -a 0 -i 16 -k RTR
h -t 0.963723742 -s 38 -d -1 -p message -e 32 -c 2 -a 0 -i 16 -k RTR
r -t 0.967773864 -s 39 -d -1 -p message -e 32 -c 2 -a 0 -i 16 -k RTR
r -t 0.967773879 -s 34 -d -1 -p message -e 32 -c 2 -a 0 -i 16 -k RTR
r -t 0.967773916 -s 1 -d -1 -p message -e 32 -c 2 -a 0 -i 16 -k RTR
r -t 0.967773943 -s 9 -d -1 -p message -e 32 -c 2 -a 0 -i 16 -k RTR
r -t 0.967773946 -s 33 -d -1 -p message -e 32 -c 2 -a 0 -i 16 -k RTR
r -t 0.967773997 -s 13 -d -1 -p message -e 32 -c 2 -a 0 -i 16 -k RTR
r -t 0.967774031 -s 7 -d -1 -p message -e 32 -c 2 -a 0 -i 16 -k RTR
r -t 0.967774035 -s 16 -d -1 -p message -e 32 -c 2 -a 0 -i 16 -k RTR
r -t 0.967774148 -s 29 -d -1 -p message -e 32 -c 2 -a 0 -i 16 -k RTR
r -t 0.967774241 -s 8 -d -1 -p message -e 32 -c 2 -a 0 -i 16 -k RTR
r -t 0.967774261 -s 12 -d -1 -p message -e 32 -c 2 -a 0 -i 16 -k RTR
r -t 0.967774278 -s 35 -d -1 -p message -e 32 -c 2 -a 0 -i 16 -k RTR
r -t 0.967774318 -s 30 -d -1 -p message -e 32 -c 2 -a 0 -i 16 -k RTR
r -t 0.967774330 -s 11 -d -1 -p message -e 32 -c 2 -a 0 -i 16 -k RTR
r -t 0.967774416 -s 36 -d -1 -p message -e 32 -c 2 -a 0 -i 16 -k RTR
r -t 0.967774572 -s 2 -d -1 -p message -e 32 -c 2 -a 0 -i 16 -k RTR
+ -t 0.974323794 -s 2 -d -1 -p message -e 32 -c 2 -a 0 -i 17 -k RTR 
- -t 0.974323794 -s 2 -d -1 -p message -e 32 -c 2 -a 0 -i 17 -k RTR
h -t 0.974323794 -s 2 -d -1 -p message -e 32 -c 2 -a 0 -i 17 -k RTR
r -t 0.978054006 -s 37 -d -1 -p message -e 32 -c 2 -a 0 -i 17 -k RTR
r -t 0.978054076 -s 5 -d -1 -p message -e 32 -c 2 -a 0 -i 17 -k RTR
r -t 0.978054105 -s 12 -d -1 -p message -e 32 -c 2 -a 0 -i 17 -k RTR
r -t 0.978054151 -s 11 -d -1 -p message -e 32 -c 2 -a 0 -i 17 -k RTR
r -t 0.978054205 -s 27 -d -1 -p message -e 32 -c 2 -a 0 -i 17 -k RTR
r -t 0.978054211 -s 8 -d -1 -p message -e 32 -c 2 -a 0 -i 17 -k RTR
r -t 0.978054247 -s 35 -d -1 -p message -e 32 -c 2 -a 0 -i 17 -k RTR
r -t 0.978054325 -s 21 -d -1 -p message -e 32 -c 2 -a 0 -i 17 -k RTR
r -t 0.978054325 -s 29 -d -1 -p message -e 32 -c 2 -a 0 -i 17 -k RTR
r -t 0.978054344 -s 7 -d -1 -p message -e 32 -c 2 -a 0 -i 17 -k RTR
r -t 0.978054383 -s 20 -d -1 -p message -e 32 -c 2 -a 0 -i 17 -k RTR
r -t 0.978054408 -s 13 -d -1 -p message -e 32 -c 2 -a 0 -i 17 -k RTR
r -t 0.978054448 -s 9 -d -1 -p message -e 32 -c 2 -a 0 -i 17 -k RTR
r -t 0.978054480 -s 19 -d -1 -p message -e 32 -c 2 -a 0 -i 17 -k RTR
r -t 0.978054484 -s 31 -d -1 -p message -e 32 -c 2 -a 0 -i 17 -k RTR
r -t 0.978054550 -s 24 -d -1 -p message -e 32 -c 2 -a 0 -i 17 -k RTR
r -t 0.978054560 -s 3 -d -1 -p message -e 32 -c 2 -a 0 -i 17 -k RTR
r -t 0.978054563 -s 34 -d -1 -p message -e 32 -c 2 -a 0 -i 17 -k RTR
r -t 0.978054597 -s 1 -d -1 -p message -e 32 -c 2 -a 0 -i 17 -k RTR
r -t 0.978054600 -s 15 -d -1 -p message -e 32 -c 2 -a 0 -i 17 -k RTR
r -t 0.978054604 -s 18 -d -1 -p message -e 32 -c 2 -a 0 -i 17 -k RTR
r -t 0.978054607 -s 17 -d -1 -p message -e 32 -c 2 -a 0 -i 17 -k RTR
r -t 0.978054623 -s 38 -d -1 -p message -e 32 -c 2 -a 0 -i 17 -k RTR
n -t 1.000000 -s 0 -x 144.000000 -y 302.000000 -U 3.992210 -V -0.249513 -T 76.148293
n -t 1.000000 -s 1 -x 482.000000 -y 385.000000 -U -0.822897 -V 0.568191 -T 102.078401
n -t 1.000000 -s 2 -x 362.000000 -y 176.000000 -U -1.998906 -V 0.066140 -T 136.074428
n -t 1.000000 -s 3 -x 142.000000 -y 243.000000 -U -0.846495 -V -1.812028 -T 75.605886
n -t 1.000000 -s 4 -x 134.000000 -y 53.000000 -U 0.863958 -V 0.503564 -T 202.556165
n -t 1.000000 -s 5 -x 397.000000 -y 99.000000 -U -1.998592 -V -0.075032 -T 146.603206
n -t 1.000000 -s 6 -x 10.000000 -y 268.000000 -U 3.945576 -V -0.657596 -T 123.175941
n -t 1.000000 -s 7 -x 429.000000 -y 327.000000 -U -1.658654 -V -2.499773 -T 127.211547
n -t 1.000000 -s 8 -x 451.000000 -y 264.000000 -U -2.022590 -V -2.215656 -T 108.771422
n -t 1.000000 -s 9 -x 397.000000 -y 369.000000 -U -1.857790 -V -0.740687 -T 164.711870
n -t 1.000000 -s 10 -x 49.000000 -y 490.000000 -U 1.620059 -V -2.524957 -T 68.516016
n -t 1.000000 -s 11 -x 326.000000 -y 277.000000 -U -4.080556 -V 2.889475 -T 45.336961
n -t 1.000000 -s 12 -x 393.000000 -y 264.000000 -U -0.881212 -V -0.472720 -T 389.236432
n -t 1.000000 -s 13 -x 384.000000 -y 359.000000 -U -1.914054 -V -2.310065 -T 15.151091
n -t 1.000000 -s 14 -x 101.000000 -y 229.000000 -U 1.952622 -V -0.432743 -T 94.744393
n -t 1.000000 -s 15 -x 141.000000 -y 78.000000 -U 0.883478 -V 0.468473 -T 392.765834
n -t 1.000000 -s 16 -x 450.000000 -y 500.000000 -U -3.474597 -V -1.981710 -T 75.692222
n -t 1.000000 -s 17 -x 192.000000 -y 351.000000 -U 3.604544 -V 1.734145 -T 80.731422
n -t 1.000000 -s 18 -x 150.000000 -y 57.000000 -U 0.569197 -V 1.917294 -T 33.380383
n -t 1.000000 -s 19 -x 481.000000 -y 8.000000 -U 0.194658 -V 4.996209 -T 15.411684
n -t 1.000000 -s 20 -x 240.000000 -y 48.000000 -U -0.382167 -V 0.924093 -T 319.231891
n -t 1.000000 -s 21 -x 276.000000 -y 42.000000 -U 0.349209 -V 0.937045 -T 171.816763
n -t 1.000000 -s 22 -x 72.000000 -y 470.000000 -U -0.045250 -V -0.998976 -T 287.294274
n -t 1.000000 -s 23 -x 33.000000 -y 202.000000 -U -0.800666 -V -3.919048 -T 23.730255
n -t 1.000000 -s 24 -x 150.000000 -y 95.000000 -U -1.462609 -V 3.723006 -T 67.687240
n -t 1.000000 -s 25 -x 44.000000 -y 58.000000 -U 4.712139 -V -1.672049 -T 32.893768
n -t 1.000000 -s 26 -x 40.000000 -y 236.000000 -U 2.945172 -V -0.570932 -T 143.624897
n -t 1.000000 -s 27 -x 242.000000 -y 148.000000 -U 0.998895 -V -0.047007 -T 255.282197
n -t 1.000000 -s 28 -x 96.000000 -y 19.000000 -U 0.615392 -V 3.952378 -T 115.373578
n -t 1.000000 -s 29 -x 468.000000 -y 295.000000 -U -0.533172 -V 1.927622 -T 48.764741
n -t 1.000000 -s 30 -x 275.000000 -y 470.000000 -U 0.174169 -V -3.996206 -T 103.348016
n -t 1.000000 -s 31 -x 492.000000 -y 15.000000 -U -3.295699 -V 2.266798 -T 124.404582
n -t 1.000000 -s 32 -x 8.000000 -y 264.000000 -U 4.749394 -V 1.563092 -T 83.168504
n -t 1.000000 -s 33 -x 435.000000 -y 474.000000 -U -1.752016 -V -0.964593 -T 50.798622
n -t 1.000000 -s 34 -x 398.000000 -y 404.000000 -U -0.867686 -V -0.497112 -T 331.917158
n -t 1.000000 -s 35 -x 472.000000 -y 256.000000 -U -0.960921 -V 0.276822 -T 314.281721
n -t 1.000000 -s 36 -x 248.000000 -y 482.000000 -U 0.643971 -V -2.930068 -T 155.286474
n -t 1.000000 -s 37 -x 408.000000 -y 132.000000 -U -3.602207 -V -1.738996 -T 8.050621
n -t 1.000000 -s 38 -x 438.000000 -y 413.000000 -U -0.872587 -V -0.488459 -T 210.867257
n -t 1.000000 -s 39 -x 469.000000 -y 432.000000 -U -2.828167 -V 1.000736 -T 45.966171
+ -t 1.012757599 -s 3 -d -1 -p tcp -e 40 -c 2 -a 0 -i 18 -k AGT 
- -t 1.012757599 -s 3 -d -1 -p tcp -e 40 -c 2 -a 0 -i 18 -k AGT
h -t 1.012757599 -s 3 -d -1 -p tcp -e 40 -c 2 -a 0 -i 18 -k AGT
+ -t 1.041169315 -s 34 -d -1 -p message -e 32 -c 2 -a 0 -i 19 -k RTR 