n -t * -s 0  -x 144 -y 302 -Z 0 -z 20  -v circle -c black
n -t * -s 1  -x 482 -y 385 -Z 0 -z 20  -v circle -c black
n -t * -s 2  -x 362 -y 176 -Z 0 -z 20  -v circle -c black
n -t * -s 3  -x 142 -y 243 -Z 0 -z 20  -v circle -c black
n -t * -s 4  -x 134 -y 53 -Z 0 -z 20  -v circle -c black
n -t * -s 5  -x 397 -y 99 -Z 0 -z 20  -v circle -c black
n -t * -s 6  -x 10 -y 268 -Z 0 -z 20  -v circle -c black
n -t * -s 7  -x 429 -y 327 -Z 0 -z 20  -v circle -c black
n -t * -s 8  -x 451 -y 264 -Z 0 -z 20  -v circle -c black
n -t * -s 9  -x 397 -y 369 -Z 0 -z 20  -v circle -c black
n -t * -s 10  -x 49 -y 490 -Z 0 -z 20  -v circle -c black
n -t * -s 11  -x 326 -y 277 -Z 0 -z 20  -v circle -c black
n -t * -s 12  -x 393 -y 264 -Z 0 -z 20  -v circle -c black
n -t * -s 13  -x 384 -y 359 -Z 0 -z 20  -v circle -c black
n -t * -s 14  -x 101 -y 229 -Z 0 -z 20  -v circle -c black
n -t * -s 15  -x 141 -y 78 -Z 0 -z 20  -v circle -c black
n -t * -s 16  -x 450 -y 500 -Z 0 -z 20  -v circle -c black
n -t * -s 17  -x 192 -y 351 -Z 0 -z 20  -v circle -c black
n -t * -s 18  -x 150 -y 57 -Z 0 -z 20  -v circle -c black
n -t * -s 19  -x 481 -y 8 -Z 0 -z 20  -v circle -c black
n -t * -s 20  -x 240 -y 48 -Z 0 -z 20  -v circle -c black
n -t * -s 21  -x 276 -y 42 -Z 0 -z 20  -v circle -c black
n -t * -s 22  -x 72 -y 470 -Z 0 -z 20  -v circle -c black
n -t * -s 23  -x 33 -y 202 -Z 0 -z 20  -v circle -c black
n -t * -s 24  -x 150 -y 95 -Z 0 -z 20  -v circle -c black
n -t * -s 25  -x 44 -y 58 -Z 0 -z 20  -v circle -c black
n -t * -s 26  -x 40 -y 236 -Z 0 -z 20  -v circle -c black
n -t * -s 27  -x 242 -y 148 -Z 0 -z 20  -v circle -c black
n -t * -s 28  -x 96 -y 19 -Z 0 -z 20  -v circle -c black
n -t * -s 29  -x 468 -y 295 -Z 0 -z 20  -v circle -c black
n -t * -s 30  -x 275 -y 470 -Z 0 -z 20  -v circle -c black
n -t * -s 31  -x 492 -y 15 -Z 0 -z 20  -v circle -c black
n -t * -s 32  -x 8 -y 264 -Z 0 -z 20  -v circle -c black
n -t * -s 33  -x 435 -y 474 -Z 0 -z 20  -v circle -c black
n -t * -s 34  -x 398 -y 404 -Z 0 -z 20  -v circle -c black
n -t * -s 35  -x 472 -y 256 -Z 0 -z 20  -v circle -c black
n -t * -s 36  -x 248 -y 482 -Z 0 -z 20  -v circle -c black
n -t * -s 37  -x 408 -y 132 -Z 0 -z 20  -v circle -c black
n -t * -s 38  -x 438 -y 413 -Z 0 -z 20  -v circle -c black
n -t * -s 39  -x 469 -y 432 -Z 0 -z 20  -v circle -c black
V -t * -v 1.0a5 -a 0
W -t * -x 500 -y 500
A -t * -n 1 -p 0 -o 0x7fffffff -c 30 -a 1
A -t * -h 1 -m 1073741823 -s 0
+ -t 0.037396671 -s 1 -d -1 -p message -e 32 -c 2 -a 0 -i 0 -k RTR 
- -t 0.037396671 -s 1 -d -1 -p message -e 32 -c 2 -a 0 -i 0 -k RTR
h -t 0.037396671 -s 1 -d -1 -p message -e 32 -c 2 -a 0 -i 0 -k RTR
r -t 0.040166834 -s 39 -d -1 -p message -e 32 -c 2 -a 0 -i 0 -k RTR
r -t 0.040166845 -s 38 -d -1 -p message -e 32 -c 2 -a 0 -i 0 -k RTR
r -t 0.040166933 -s 7 -d -1 -p message -e 32 -c 2 -a 0 -i 0 -k RTR
r -t 0.040166958 -s 34 -d -1 -p message -e 32 -c 2 -a 0 -i 0 -k RTR
r -t 0.040166960 -s 9 -d -1 -p message -e 32 -c 2 -a 0 -i 0 -k RTR
r -t 0.040166975 -s 29 -d -1 -p message -e 32 -c 2 -a 0 -i 0 -k RTR
r -t 0.040167007 -s 33 -d -1 -p message -e 32 -c 2 -a 0 -i 0 -k RTR
r -t 0.040167009 -s 13 -d -1 -p message -e 32 -c 2 -a 0 -i 0 -k RTR
r -t 0.040167069 -s 16 -d -1 -p message -e 32 -c 2 -a 0 -i 0 -k RTR
r -t 0.040167088 -s 8 -d -1 -p message -e 32 -c 2 -a 0 -i 0 -k RTR
r -t 0.040167103 -s 35 -d -1 -p message -e 32 -c 2 -a 0 -i 0 -k RTR
r -t 0.040167172 -s 12 -d -1 -p message -e 32 -c 2 -a 0 -i 0 -k RTR
r -t 0.040167304 -s 11 -d -1 -p message -e 32 -c 2 -a 0 -i 0 -k RTR
r -t 0.040167417 -s 30 -d -1 -p message -e 32 -c 2 -a 0 -i 0 -k RTR
r -t 0.040167475 -s 2 -d -1 -p message -e 32 -c 2 -a 0 -i 0 -k RTR
+ -t 0.088725386 -s 21 -d -1 -p message -e 32 -c 2 -a 0 -i 1 -k RTR 
- -t 0.088725386 -s 21 -d -1 -p message -e 32 -c 2 -a 0 -i 1 -k RTR
h -t 0.088725386 -s 21 -d -1 -p message -e 32 -c 2 -a 0 -i 1 -k RTR
r -t 0.091815507 -s 20 -d -1 -p message -e 32 -c 2 -a 0 -i 1 -k RTR
r -t 0.091815757 -s 27 -d -1 -p message -e 32 -c 2 -a 0 -i 1 -k RTR
r -t 0.091815809 -s 18 -d -1 -p message -e 32 -c 2 -a 0 -i 1 -k RTR
r -t 0.091815832 -s 5 -d -1 -p message -e 32 -c 2 -a 0 -i 1 -k RTR
r -t 0.091815841 -s 24 -d -1 -p message -e 32 -c 2 -a 0 -i 1 -k RTR
r -t 0.091815852 -s 15 -d -1 -p message -e 32 -c 2 -a 0 -i 1 -k RTR
r -t 0.091815861 -s 4 -d -1 -p message -e 32 -c 2 -a 0 -i 1 -k RTR
r -t 0.091815917 -s 2 -d -1 -p message -e 32 -c 2 -a 0 -i 1 -k RTR
r -t 0.091815918 -s 37 -d -1 -p message -e 32 -c 2 -a 0 -i 1 -k RTR
r -t 0.091815991 -s 28 -d -1 -p message -e 32 -c 2 -a 0 -i 1 -k RTR
r -t 0.091816078 -s 19 -d -1 -p message -e 32 -c 2 -a 0 -i 1 -k RTR
r -t 0.091816111 -s 31 -d -1 -p message -e 32 -c 2 -a 0 -i 1 -k RTR
r -t 0.091816161 -s 25 -d -1 -p message -e 32 -c 2 -a 0 -i 1 -k RTR
r -t 0.091816187 -s 11 -d -1 -p message -e 32 -c 2 -a 0 -i 1 -k RTR
r -t 0.091816191 -s 3 -d -1 -p message -e 32 -c 2 -a 0 -i 1 -k RTR
+ -t 0.124693709 -s 26 -d -1 -p message -e 32 -c 2 -a 0 -i 2 -k RTR 
- -t 0.124693709 -s 26 -d -1 -p message -e 32 -c 2 -a 0 -i 2 -k RTR
h -t 0.124693709 -s 26 -d -1 -p message -e 32 -c 2 -a 0 -i 2 -k RTR
r -t 0.129383825 -s 23 -d -1 -p message -e 32 -c 2 -a 0 -i 2 -k RTR
r -t 0.129383851 -s 32 -d -1 -p message -e 32 -c 2 -a 0 -i 2 -k RTR
r -t 0.129383855 -s 6 -d -1 -p message -e 32 -c 2 -a 0 -i 2 -k RTR
r -t 0.129383914 -s 14 -d -1 -p message -e 32 -c 2 -a 0 -i 2 -k RTR
r -t 0.129384050 -s 3 -d -1 -p message -e 32 -c 2 -a 0 -i 2 -k RTR
r -t 0.129384120 -s 0 -d -1 -p message -e 32 -c 2 -a 0 -i 2 -k RTR
r -t 0.129384303 -s 25 -d -1 -p message -e 32 -c 2 -a 0 -i 2 -k RTR
r -t 0.129384305 -s 24 -d -1 -p message -e 32 -c 2 -a 0 -i 2 -k RTR
r -t 0.129384334 -s 15 -d -1 -p message -e 32 -c 2 -a 0 -i 2 -k RTR
r -t 0.129384344 -s 17 -d -1 -p message -e 32 -c 2 -a 0 -i 2 -k RTR
r -t 0.129384395 -s 4 -d -1 -p message -e 32 -c 2 -a 0 -i 2 -k RTR
r -t 0.129384409 -s 18 -d -1 -p message -e 32 -c 2 -a 0 -i 2 -k RTR
r -t 0.129384444 -s 27 -d -1 -p message -e 32 -c 2 -a 0 -i 2 -k RTR
r -t 0.129384456 -s 28 -d -1 -p message -e 32 -c 2 -a 0 -i 2 -k RTR
r -t 0.129384496 -s 22 -d -1 -p message -e 32 -c 2 -a 0 -i 2 -k RTR
+ -t 0.136474986 -s 18 -d -1 -p message -e 32 -c 2 -a 0 -i 3 -k RTR 
- -t 0.136474986 -s 18 -d -1 -p message -e 32 -c 2 -a 0 -i 3 -k RTR
h -t 0.136474986 -s 18 -d -1 -p message -e 32 -c 2 -a 0 -i 3 -k RTR
r -t 0.139245041 -s 4 -d -1 -p message -e 32 -c 2 -a 0 -i 3 -k RTR
r -t 0.139245062 -s 15 -d -1 -p message -e 32 -c 2 -a 0 -i 3 -k RTR
r -t 0.139245112 -s 24 -d -1 -p message -e 32 -c 2 -a 0 -i 3 -k RTR
r -t 0.139245206 -s 28 -d -1 -p message -e 32 -c 2 -a 0 -i 3 -k RTR
r -t 0.139245287 -s 20 -d -1 -p message -e 32 -c 2 -a 0 -i 3 -k RTR
r -t 0.139245339 -s 25 -d -1 -p message -e 32 -c 2 -a 0 -i 3 -k RTR
r -t 0.139245409 -s 21 -d -1 -p message -e 32 -c 2 -a 0 -i 3 -k RTR
r -t 0.139245417 -s 27 -d -1 -p message -e 32 -c 2 -a 0 -i 3 -k RTR
r -t 0.139245582 -s 14 -d -1 -p message -e 32 -c 2 -a 0 -i 3 -k RTR
r -t 0.139245606 -s 3 -d -1 -p message -e 32 -c 2 -a 0 -i 3 -k RTR
r -t 0.139245607 -s 23 -d -1 -p message -e 32 -c 2 -a 0 -i 3 -k RTR
r -t 0.139245686 -s 26 -d -1 -p message -e 32 -c 2 -a 0 -i 3 -k RTR
r -t 0.139245796 -s 2 -d -1 -p message -e 32 -c 2 -a 0 -i 3 -k RTR
r -t 0.139245803 -s 0 -d -1 -p message -e 32 -c 2 -a 0 -i 3 -k RTR
+ -t 0.244926806 -s 5 -d -1 -p message -e 32 -c 2 -a 0 -i 4 -k RTR 
- -t 0.244926806 -s 5 -d -1 -p message -e 32 -c 2 -a 0 -i 4 -k RTR
h -t 0.244926806 -s 5 -d -1 -p message -e 32 -c 2 -a 0 -i 4 -k RTR
r -t 0.248656922 -s 37 -d -1 -p message -e 32 -c 2 -a 0 -i 4 -k RTR
r -t 0.248657088 -s 2 -d -1 -p message -e 32 -c 2 -a 0 -i 4 -k RTR
r -t 0.248657219 -s 19 -d -1 -p message -e 32 -c 2 -a 0 -i 4 -k RTR
r -t 0.248657228 -s 31 -d -1 -p message -e 32 -c 2 -a 0 -i 4 -k RTR
r -t 0.248657252 -s 21 -d -1 -p message -e 32 -c 2 -a 0 -i 4 -k RTR
r -t 0.248657348 -s 27 -d -1 -p message -e 32 -c 2 -a 0 -i 4 -k RTR
r -t 0.248657356 -s 12 -d -1 -p message -e 32 -c 2 -a 0 -i 4 -k RTR
r -t 0.248657356 -s 20 -d -1 -p message -e 32 -c 2 -a 0 -i 4 -k RTR
r -t 0.248657384 -s 8 -d -1 -p message -e 32 -c 2 -a 0 -i 4 -k RTR
r -t 0.248657386 -s 35 -d -1 -p message -e 32 -c 2 -a 0 -i 4 -k RTR
r -t 0.248657445 -s 11 -d -1 -p message -e 32 -c 2 -a 0 -i 4 -k RTR
r -t 0.248657501 -s 29 -d -1 -p message -e 32 -c 2 -a 0 -i 4 -k RTR
r -t 0.248657573 -s 7 -d -1 -p message -e 32 -c 2 -a 0 -i 4 -k RTR
r -t 0.248657629 -s 24 -d -1 -p message -e 32 -c 2 -a 0 -i 4 -k RTR
+ -t 0.307374157 -s 38 -d -1 -p message -e 32 -c 2 -a 0 -i 5 -k RTR 
- -t 0.307374157 -s 38 -d -1 -p message -e 32 -c 2 -a 0 -i 5 -k RTR
h -t 0.307374157 -s 38 -d -1 -p message -e 32 -c 2 -a 0 -i 5 -k RTR
r -t 0.310144279 -s 39 -d -1 -p message -e 32 -c 2 -a 0 -i 5 -k RTR
r -t 0.310144294 -s 34 -d -1 -p message -e 32 -c 2 -a 0 -i 5 -k RTR
r -t 0.310144331 -s 1 -d -1 -p message -e 32 -c 2 -a 0 -i 5 -k RTR
r -t 0.310144358 -s 9 -d -1 -p message -e 32 -c 2 -a 0 -i 5 -k RTR
r -t 0.310144361 -s 33 -d -1 -p message -e 32 -c 2 -a 0 -i 5 -k RTR
r -t 0.310144412 -s 13 -d -1 -p message -e 32 -c 2 -a 0 -i 5 -k RTR
r -t 0.310144446 -s 7 -d -1 -p message -e 32 -c 2 -a 0 -i 5 -k RTR
r -t 0.310144450 -s 16 -d -1 -p message -e 32 -c 2 -a 0 -i 5 -k RTR
r -t 0.310144563 -s 29 -d -1 -p message -e 32 -c 2 -a 0 -i 5 -k RTR
r -t 0.310144656 -s 8 -d -1 -p message -e 32 -c 2 -a 0 -i 5 -k RTR
r -t 0.310144676 -s 12 -d -1 -p message -e 32 -c 2 -a 0 -i 5 -k RTR
r -t 0.310144693 -s 35 -d -1 -p message -e 32 -c 2 -a 0 -i 5 -k RTR
r -t 0.310144733 -s 30 -d -1 -p message -e 32 -c 2 -a 0 -i 5 -k RTR
r -t 0.310144745 -s 11 -d -1 -p message -e 32 -c 2 -a 0 -i 5 -k RTR
r -t 0.310144831 -s 36 -d -1 -p message -e 32 -c 2 -a 0 -i 5 -k RTR
r -t 0.310144987 -s 2 -d -1 -p message -e 32 -c 2 -a 0 -i 5 -k RTR
+ -t 0.325572990 -s 16 -d -1 -p message -e 32 -c 2 -a 0 -i 6 -k RTR 
- -t 0.325572990 -s 16 -d -1 -p message -e 32 -c 2 -a 0 -i 6 -k RTR
h -t 0.325572990 -s 16 -d -1 -p message -e 32 -c 2 -a 0 -i 6 -k RTR
r -t 0.329303090 -s 33 -d -1 -p message -e 32 -c 2 -a 0 -i 6 -k RTR
r -t 0.329303225 -s 39 -d -1 -p message -e 32 -c 2 -a 0 -i 6 -k RTR
r -t 0.329303282 -s 38 -d -1 -p message -e 32 -c 2 -a 0 -i 6 -k RTR
r -t 0.329303353 -s 34 -d -1 -p message -e 32 -c 2 -a 0 -i 6 -k RTR
r -t 0.329303387 -s 1 -d -1 -p message -e 32 -c 2 -a 0 -i 6 -k RTR
r -t 0.329303461 -s 9 -d -1 -p message -e 32 -c 2 -a 0 -i 6 -k RTR
r -t 0.329303508 -s 13 -d -1 -p message -e 32 -c 2 -a 0 -i 6 -k RTR
r -t 0.329303570 -s 7 -d -1 -p message -e 32 -c 2 -a 0 -i 6 -k RTR
r -t 0.329303581 -s 30 -d -1 -p message -e 32 -c 2 -a 0 -i 6 -k RTR
r -t 0.329303666 -s 36 -d -1 -p message -e 32 -c 2 -a 0 -i 6 -k RTR
r -t 0.329303675 -s 29 -d -1 -p message -e 32 -c 2 -a 0 -i 6 -k RTR
r -t 0.329303776 -s 8 -d -1 -p message -e 32 -c 2 -a 0 -i 6 -k RTR
r -t 0.329303799 -s 12 -d -1 -p message -e 32 -c 2 -a 0 -i 6 -k RTR
r -t 0.329303806 -s 35 -d -1 -p message -e 32 -c 2 -a 0 -i 6 -k RTR
+ -t 0.355298683 -s 19 -d -1 -p message -e 32 -c 2 -a 0 -i 7 -k RTR 
- -t 0.355298683 -s 19 -d -1 -p message -e 32 -c 2 -a 0 -i 7 -k RTR
h -t 0.355298683 -s 19 -d -1 -p message -e 32 -c 2 -a 0 -i 7 -k RTR
r -t 0.359028727 -s 31 -d -1 -p message -e 32 -c 2 -a 0 -i 7 -k RTR
r -t 0.359029096 -s 5 -d -1 -p message -e 32 -c 2 -a 0 -i 7 -k RTR
r -t 0.359029163 -s 37 -d -1 -p message -e 32 -c 2 -a 0 -i 7 -k RTR
r -t 0.359029370 -s 2 -d -1 -p message -e 32 -c 2 -a 0 -i 7 -k RTR
r -t 0.359029376 -s 21 -d -1 -p message -e 32 -c 2 -a 0 -i 7 -k RTR
r -t 0.359029498 -s 20 -d -1 -p message -e 32 -c 2 -a 0 -i 7 -k RTR
r -t 0.359029511 -s 35 -d -1 -p message -e 32 -c 2 -a 0 -i 7 -k RTR
+ -t 0.416424413 -s 0 -d -1 -p message -e 32 -c 2 -a 0 -i 8 -k RTR 
- -t 0.416424413 -s 0 -d -1 -p message -e 32 -c 2 -a 0 -i 8 -k RTR
h -t 0.416424413 -s 0 -d -1 -p message -e 32 -c 2 -a 0 -i 8 -k RTR
r -t 0.419194610 -s 3 -d -1 -p message -e 32 -c 2 -a 0 -i 8 -k RTR
r -t 0.419194642 -s 17 -d -1 -p message -e 32 -c 2 -a 0 -i 8 -k RTR
r -t 0.419194696 -s 14 -d -1 -p message -e 32 -c 2 -a 0 -i 8 -k RTR
r -t 0.419194824 -s 26 -d -1 -p message -e 32 -c 2 -a 0 -i 8 -k RTR
r -t 0.419194874 -s 6 -d -1 -p message -e 32 -c 2 -a 0 -i 8 -k RTR
r -t 0.419194884 -s 32 -d -1 -p message -e 32 -c 2 -a 0 -i 8 -k RTR
r -t 0.419194911 -s 23 -d -1 -p message -e 32 -c 2 -a 0 -i 8 -k RTR
r -t 0.419195022 -s 27 -d -1 -p message -e 32 -c 2 -a 0 -i 8 -k RTR
r -t 0.419195023 -s 22 -d -1 -p message -e 32 -c 2 -a 0 -i 8 -k RTR
r -t 0.419195026 -s 11 -d -1 -p message -e 32 -c 2 -a 0 -i 8 -k RTR
r -t 0.419195104 -s 24 -d -1 -p message -e 32 -c 2 -a 0 -i 8 -k RTR
r -t 0.419195106 -s 36 -d -1 -p message -e 32 -c 2 -a 0 -i 8 -k RTR
r -t 0.419195115 -s 10 -d -1 -p message -e 32 -c 2 -a 0 -i 8 -k RTR
r -t 0.419195123 -s 30 -d -1 -p message -e 32 -c 2 -a 0 -i 8 -k RTR
r -t 0.419195160 -s 15 -d -1 -p message -e 32 -c 2 -a 0 -i 8 -k RTR
r -t 0.419195230 -s 18 -d -1 -p message -e 32 -c 2 -a 0 -i 8 -k RTR
r -t 0.419195236 -s 13 -d -1 -p message -e 32 -c 2 -a 0 -i 8 -k RTR
r -t 0.419195244 -s 4 -d -1 -p message -e 32 -c 2 -a 0 -i 8 -k RTR
+ -t 0.430447431 -s 7 -d -1 -p message -e 32 -c 2 -a 0 -i 9 -k RTR 
- -t 0.430447431 -s 7 -d -1 -p message -e 32 -c 2 -a 0 -i 9 -k RTR
h -t 0.430447431 -s 7 -d -1 -p message -e 32 -c 2 -a 0 -i 9 -k RTR
r -t 0.434497599 -s 29 -d -1 -p message -e 32 -c 2 -a 0 -i 9 -k RTR
r -t 0.434497607 -s 9 -d -1 -p message -e 32 -c 2 -a 0 -i 9 -k RTR
r -t 0.434497615 -s 13 -d -1 -p message -e 32 -c 2 -a 0 -i 9 -k RTR
r -t 0.434497653 -s 8 -d -1 -p message -e 32 -c 2 -a 0 -i 9 -k RTR
r -t 0.434497673 -s 12 -d -1 -p message -e 32 -c 2 -a 0 -i 9 -k RTR
r -t 0.434497693 -s 1 -d -1 -p message -e 32 -c 2 -a 0 -i 9 -k RTR
r -t 0.434497707 -s 34 -d -1 -p message -e 32 -c 2 -a 0 -i 9 -k RTR
r -t 0.434497707 -s 35 -d -1 -p message -e 32 -c 2 -a 0 -i 9 -k RTR
r -t 0.434497719 -s 38 -d -1 -p message -e 32 -c 2 -a 0 -i 9 -k RTR
r -t 0.434497805 -s 39 -d -1 -p message -e 32 -c 2 -a 0 -i 9 -k RTR
r -t 0.434497812 -s 11 -d -1 -p message -e 32 -c 2 -a 0 -i 9 -k RTR
r -t 0.434497921 -s 33 -d -1 -p message -e 32 -c 2 -a 0 -i 9 -k RTR
r -t 0.434497981 -s 2 -d -1 -p message -e 32 -c 2 -a 0 -i 9 -k RTR
r -t 0.434498012 -s 16 -d -1 -p message -e 32 -c 2 -a 0 -i 9 -k RTR
r -t 0.434498084 -s 37 -d -1 -p message -e 32 -c 2 -a 0 -i 9 -k RTR
r -t 0.434498131 -s 30 -d -1 -p message -e 32 -c 2 -a 0 -i 9 -k RTR
r -t 0.434498198 -s 5 -d -1 -p message -e 32 -c 2 -a 0 -i 9 -k RTR
r -t 0.434498225 -s 17 -d -1 -p message -e 32 -c 2 -a 0 -i 9 -k RTR
r -t 0.434498225 -s 36 -d -1 -p message -e 32 -c 2 -a 0 -i 9 -k RTR
+ -t 0.461883501 -s 24 -d -1 -p message -e 32 -c 2 -a 0 -i 10 -k RTR 
- -t 0.461883501 -s 24 -d -1 -p message -e 32 -c 2 -a 0 -i 10 -k RTR
h -t 0.461883501 -s 24 -d -1 -p message -e 32 -c 2 -a 0 -i 10 -k RTR
+ -t 0.462257358 -s 31 -d -1 -p message -e 32 -c 2 -a 0 -i 11 -k RTR 
- -t 0.462257358 -s 31 -d -1 -p message -e 32 -c 2 -a 0 -i 11 -k RTR
h -t 0.462257358 -s 31 -d -1 -p message -e 32 -c 2 -a 0 -i 11 -k RTR
r -t 0.465933565 -s 15 -d -1 -p message -e 32 -c 2 -a 0 -i 10 -k RTR
r -t 0.465933628 -s 18 -d -1 -p message -e 32 -c 2 -a 0 -i 10 -k RTR
r -t 0.465933651 -s 4 -d -1 -p message -e 32 -c 2 -a 0 -i 10 -k RTR
r -t 0.465933812 -s 28 -d -1 -p message -e 32 -c 2 -a 0 -i 10 -k RTR
r -t 0.465933840 -s 20 -d -1 -p message -e 32 -c 2 -a 0 -i 10 -k RTR
r -t 0.465933855 -s 27 -d -1 -p message -e 32 -c 2 -a 0 -i 10 -k RTR
r -t 0.465933876 -s 25 -d -1 -p message -e 32 -c 2 -a 0 -i 10 -k RTR
r -t 0.465933957 -s 21 -d -1 -p message -e 32 -c 2 -a 0 -i 10 -k RTR
r -t 0.465933977 -s 14 -d -1 -p message -e 32 -c 2 -a 0 -i 10 -k RTR
r -t 0.465933995 -s 3 -d -1 -p message -e 32 -c 2 -a 0 -i 10 -k RTR
r -t 0.465934030 -s 23 -d -1 -p message -e 32 -c 2 -a 0 -i 10 -k RTR
r -t 0.465934097 -s 26 -d -1 -p message -e 32 -c 2 -a 0 -i 10 -k RTR
r -t 0.465934192 -s 0 -d -1 -p message -e 32 -c 2 -a 0 -i 10 -k RTR
r -t 0.465934237 -s 32 -d -1 -p message -e 32 -c 2 -a 0 -i 10 -k RTR
r -t 0.465934243 -s 6 -d -1 -p message -e 32 -c 2 -a 0 -i 10 -k RTR
r -t 0.465934258 -s 2 -d -1 -p message -e 32 -c 2 -a 0 -i 10 -k RTR
r -t 0.465934325 -s 5 -d -1 -p message -e 32 -c 2 -a 0 -i 10 -k RTR
r -t 0.473283402 -s 19 -d -1 -p message -e 32 -c 2 -a 0 -i 11 -k RTR
r -t 0.473283781 -s 5 -d -1 -p message -e 32 -c 2 -a 0 -i 11 -k RTR
r -t 0.473283839 -s 37 -d -1 -p message -e 32 -c 2 -a 0 -i 11 -k RTR
r -t 0.473284048 -s 2 -d -1 -p message -e 32 -c 2 -a 0 -i 11 -k RTR
r -t 0.473284084 -s 21 -d -1 -p message -e 32 -c 2 -a 0 -i 11 -k RTR
r -t 0.473284165 -s 35 -d -1 -p message -e 32 -c 2 -a 0 -i 11 -k RTR
+ -t 0.475251639 -s 17 -d -1 -p message -e 32 -c 2 -a 0 -i 12 -k RTR 
- -t 0.475251639 -s 17 -d -1 -p message -e 32 -c 2 -a 0 -i 12 -k RTR
h -t 0.475251639 -s 17 -d -1 -p message -e 32 -c 2 -a 0 -i 12 -k RTR
r -t 0.479941867 -s 0 -d -1 -p message -e 32 -c 2 -a 0 -i 12 -k RTR
r -t 0.479942035 -s 3 -d -1 -p message -e 32 -c 2 -a 0 -i 12 -k RTR
r -t 0.479942114 -s 36 -d -1 -p message -e 32 -c 2 -a 0 -i 12 -k RTR
r -t 0.479942122 -s 30 -d -1 -p message -e 32 -c 2 -a 0 -i 12 -k RTR
r -t 0.479942146 -s 14 -d -1 -p message -e 32 -c 2 -a 0 -i 12 -k RTR
r -t 0.479942149 -s 11 -d -1 -p message -e 32 -c 2 -a 0 -i 12 -k RTR
r -t 0.479942202 -s 22 -d -1 -p message -e 32 -c 2 -a 0 -i 12 -k RTR
r -t 0.479942274 -s 26 -d -1 -p message -e 32 -c 2 -a 0 -i 12 -k RTR
r -t 0.479942279 -s 13 -d -1 -p message -e 32 -c 2 -a 0 -i 12 -k RTR
r -t 0.479942303 -s 10 -d -1 -p message -e 32 -c 2 -a 0 -i 12 -k RTR
r -t 0.479942305 -s 6 -d -1 -p message -e 32 -c 2 -a 0 -i 12 -k RTR
r -t 0.479942317 -s 32 -d -1 -p message -e 32 -c 2 -a 0 -i 12 -k RTR
r -t 0.479942325 -s 9 -d -1 -p message -e 32 -c 2 -a 0 -i 12 -k RTR
r -t 0.479942336 -s 27 -d -1 -p message -e 32 -c 2 -a 0 -i 12 -k RTR
r -t 0.479942348 -s 34 -d -1 -p message -e 32 -c 2 -a 0 -i 12 -k RTR
r -t 0.479942365 -s 23 -d -1 -p message -e 32 -c 2 -a 0 -i 12 -k RTR
r -t 0.479942369 -s 12 -d -1 -p message -e 32 -c 2 -a 0 -i 12 -k RTR
r -t 0.479942433 -s 7 -d -1 -p message -e 32 -c 2 -a 0 -i 12 -k RTR
r -t 0.479942452 -s 2 -d -1 -p message -e 32 -c 2 -a 0 -i 12 -k RTR
+ -t 0.670997763 -s 4 -d -1 -p message -e 32 -c 2 -a 0 -i 13 -k RTR 
- -t 0.670997763 -s 4 -d -1 -p message -e 32 -c 2 -a 0 -i 13 -k RTR
h -t 0.670997763 -s 4 -d -1 -p message -e 32 -c 2 -a 0 -i 13 -k RTR
r -t 0.674407817 -s 18 -d -1 -p message -e 32 -c 2 -a 0 -i 13 -k RTR
r -t 0.674407849 -s 15 -d -1 -p message -e 32 -c 2 -a 0 -i 13 -k RTR
r -t 0.674407912 -s 24 -d -1 -p message -e 32 -c 2 -a 0 -i 13 -k RTR
r -t 0.674407932 -s 28 -d -1 -p message -e 32 -c 2 -a 0 -i 13 -k RTR
r -t 0.674408063 -s 25 -d -1 -p message -e 32 -c 2 -a 0 -i 13 -k RTR
r -t 0.674408116 -s 20 -d -1 -p message -e 32 -c 2 -a 0 -i 13 -k RTR
r -t 0.674408237 -s 21 -d -1 -p message -e 32 -c 2 -a 0 -i 13 -k RTR
r -t 0.674408242 -s 27 -d -1 -p message -e 32 -c 2 -a 0 -i 13 -k RTR
r -t 0.674408359 -s 14 -d -1 -p message -e 32 -c 2 -a 0 -i 13 -k RTR
r -t 0.674408363 -s 23 -d -1 -p message -e 32 -c 2 -a 0 -i 13 -k RTR
r -t 0.674408396 -s 3 -d -1 -p message -e 32 -c 2 -a 0 -i 13 -k RTR
r -t 0.674408448 -s 26 -d -1 -p message -e 32 -c 2 -a 0 -i 13 -k RTR
r -t 0.674408582 -s 32 -d -1 -p message -e 32 -c 2 -a 0 -i 13 -k RTR
r -t 0.674408590 -s 6 -d -1 -p message -e 32 -c 2 -a 0 -i 13 -k RTR
r -t 0.674408593 -s 0 -d -1 -p message -e 32 -c 2 -a 0 -i 13 -k RTR
+ -t 0.680683419 -s 27 -d -1 -p message -e 32 -c 2 -a 0 -i 14 -k RTR 
- -t 0.680683419 -s 27 -d -1 -p message -e 32 -c 2 -a 0 -i 14 -k RTR
h -t 0.680683419 -s 27 -d -1 -p message -e 32 -c 2 -a 0 -i 14 -k RTR
r -t 0.683453753 -s 20 -d -1 -p message -e 32 -c 2 -a 0 -i 14 -k RTR
r -t 0.683453773 -s 24 -d -1 -p message -e 32 -c 2 -a 0 -i 14 -k RTR
r -t 0.683453790 -s 21 -d -1 -p message -e 32 -c 2 -a 0 -i 14 -k RTR
r -t 0.683453829 -s 15 -d -1 -p message -e 32 -c 2 -a 0 -i 14 -k RTR
r -t 0.683453830 -s 2 -d -1 -p message -e 32 -c 2 -a 0 -i 14 -k RTR
r -t 0.683453851 -s 18 -d -1 -p message -e 32 -c 2 -a 0 -i 14 -k RTR
r -t 0.683453879 -s 3 -d -1 -p message -e 32 -c 2 -a 0 -i 14 -k RTR
r -t 0.683453899 -s 4 -d -1 -p message -e 32 -c 2 -a 0 -i 14 -k RTR
r -t 0.683453932 -s 11 -d -1 -p message -e 32 -c 2 -a 0 -i 14 -k RTR
r -t 0.683453961 -s 5 -d -1 -p message -e 32 -c 2 -a 0 -i 14 -k RTR
r -t 0.683453961 -s 14 -d -1 -p message -e 32 -c 2 -a 0 -i 14 -k RTR
r -t 0.683453975 -s 37 -d -1 -p message -e 32 -c 2 -a 0 -i 14 -k RTR
r -t 0.683454028 -s 0 -d -1 -p message -e 32 -c 2 -a 0 -i 14 -k RTR
r -t 0.683454054 -s 12 -d -1 -p message -e 32 -c 2 -a 0 -i 14 -k RTR
r -t 0.683454069 -s 28 -d -1 -p message -e 32 -c 2 -a 0 -i 14 -k RTR
r -t 0.683454116 -s 17 -d -1 -p message -e 32 -c 2 -a 0 -i 14 -k RTR
r -t 0.683454139 -s 23 -d -1 -p message -e 32 -c 2 -a 0 -i 14 -k RTR
r -t 0.683454144 -s 25 -d -1 -p message -e 32 -c 2 -a 0 -i 14 -k RTR
r -t 0.683454154 -s 26 -d -1 -p message -e 32 -c 2 -a 0 -i 14 -k RTR
r -t 0.683454216 -s 8 -d -1 -p message -e 32 -c 2 -a 0 -i 14 -k RTR
+ -t 0.819730637 -s 10 -d -1 -p message -e 32 -c 2 -a 0 -i 15 -k RTR 
- -t 0.819730637 -s 10 -d -1 -p message -e 32 -c 2 -a 0 -i 15 -k RTR
h -t 0.819730637 -s 10 -d -1 -p message -e 32 -c 2 -a 0 -i 15 -k RTR
r -t 0.824100738 -s 22 -d -1 -p message -e 32 -c 2 -a 0 -i 15 -k RTR
r -t 0.824101301 -s 36 -d -1 -p message -e 32 -c 2 -a 0 -i 15 -k RTR
r -t 0.824101302 -s 17 -d -1 -p message -e 32 -c 2 -a 0 -i 15 -k RTR
r -t 0.824101339 -s 0 -d -1 -p message -e 32 -c 2 -a 0 -i 15 -k RTR
r -t 0.824101388 -s 6 -d -1 -p message -e 32 -c 2 -a 0 -i 15 -k RTR
r -t 0.824101393 -s 30 -d -1 -p message -e 32 -c 2 -a 0 -i 15 -k RTR
r -t 0.824101402 -s 32 -d -1 -p message -e 32 -c 2 -a 0 -i 15 -k RTR
+ -t 0.846064120 -s 9 -d -1 -p message -e 32 -c 2 -a 0 -i 16 -k RTR 
- -t 0.846064120 -s 9 -d -1 -p message -e 32 -c 2 -a 0 -i 16 -k RTR
h -t 0.846064120 -s 9 -d -1 -p message -e 32 -c 2 -a 0 -i 16 -k RTR
r -t 0.849794175 -s 13 -d -1 -p message -e 32 -c 2 -a 0 -i 16 -k RTR
r -t 0.849794237 -s 34 -d -1 -p message -e 32 -c 2 -a 0 -i 16 -k RTR
r -t 0.849794296 -s 7 -d -1 -p message -e 32 -c 2 -a 0 -i 16 -k RTR
r -t 0.849794321 -s 38 -d -1 -p message -e 32 -c 2 -a 0 -i 16 -k RTR
r -t 0.849794408 -s 1 -d -1 -p message -e 32 -c 2 -a 0 -i 16 -k RTR
r -t 0.849794439 -s 39 -d -1 -p message -e 32 -c 2 -a 0 -i 16 -k RTR
r -t 0.849794462 -s 29 -d -1 -p message -e 32 -c 2 -a 0 -i 16 -k RTR
r -t 0.849794470 -s 12 -d -1 -p message -e 32 -c 2 -a 0 -i 16 -k RTR
r -t 0.849794492 -s 33 -d -1 -p message -e 32 -c 2 -a 0 -i 16 -k RTR
r -t 0.849794507 -s 11 -d -1 -p message -e 32 -c 2 -a 0 -i 16 -k RTR
r -t 0.849794514 -s 8 -d -1 -p message -e 32 -c 2 -a 0 -i 16 -k RTR
r -t 0.849794572 -s 35 -d -1 -p message -e 32 -c 2 -a 0 -i 16 -k RTR
r -t 0.849794591 -s 16 -d -1 -p message -e 32 -c 2 -a 0 -i 16 -k RTR
r -t 0.849794648 -s 30 -d -1 -p message -e 32 -c 2 -a 0 -i 16 -k RTR
r -t 0.849794743 -s 36 -d -1 -p message -e 32 -c 2 -a 0 -i 16 -k RTR
r -t 0.849794774 -s 2 -d -1 -p message -e 32 -c 2 -a 0 -i 16 -k RTR
r -t 0.849794806 -s 17 -d -1 -p message -e 32 -c 2 -a 0 -i 16 -k RTR
r -t 0.849794911 -s 37 -d -1 -p message -e 32 -c 2 -a 0 -i 16 -k RTR
+ -t 0.865684118 -s 8 -d -1 -p message -e 32 -c 2 -a 0 -i 17 -k RTR 
- -t 0.865684118 -s 8 -d -1 -p message -e 32 -c 2 -a 0 -i 17 -k RTR
h -t 0.865684118 -s 8 -d -1 -p message -e 32 -c 2 -a 0 -i 17 -k RTR
r -t 0.868134192 -s 35 -d -1 -p message -e 32 -c 2 -a 0 -i 17 -k RTR
r -t 0.868134235 -s 29 -d -1 -p message -e 32 -c 2 -a 0 -i 17 -k RTR
r -t 0.868134311 -s 12 -d -1 -p message -e 32 -c 2 -a 0 -i 17 -k RTR
r -t 0.868134340 -s 7 -d -1 -p message -e 32 -c 2 -a 0 -i 17 -k RTR
r -t 0.868134505 -s 13 -d -1 -p message -e 32 -c 2 -a 0 -i 17 -k RTR
r -t 0.868134511 -s 9 -d -1 -p message -e 32 -c 2 -a 0 -i 17 -k RTR
r -t 0.868134534 -s 1 -d -1 -p message -e 32 -c 2 -a 0 -i 17 -k RTR
r -t 0.868134535 -s 2 -d -1 -p message -e 32 -c 2 -a 0 -i 17 -k RTR
r -t 0.868134536 -s 11 -d -1 -p message -e 32 -c 2 -a 0 -i 17 -k RTR
r -t 0.868134580 -s 37 -d -1 -p message -e 32 -c 2 -a 0 -i 17 -k RTR
r -t 0.868134616 -s 38 -d -1 -p message -e 32 -c 2 -a 0 -i 17 -k RTR
r -t 0.868134617 -s 34 -d -1 -p message -e 32 -c 2 -a 0 -i 17 -k RTR
r -t 0.868134681 -s 39 -d -1 -p message -e 32 -c 2 -a 0 -i 17 -k RTR
r -t 0.868134696 -s 5 -d -1 -p message -e 32 -c 2 -a 0 -i 17 -k RTR
r -t 0.868134820 -s 33 -d -1 -p message -e 32 -c 2 -a 0 -i 17 -k RTR
r -t 0.868134904 -s 16 -d -1 -p message -e 32 -c 2 -a 0 -i 17 -k RTR
r -t 0.868134914 -s 27 -d -1 -p message -e 32 -c 2 -a 0 -i 17 -k RTR
+ -t 0.873719668 -s 30 -d -1 -p message -e 32 -c 2 -a 0 -i 18 -k RTR 
- -t 0.873719668 -s 30 -d -1 -p message -e 32 -c 2 -a 0 -i 18 -k RTR
h -t 0.873719668 -s 30 -d -1 -p message -e 32 -c 2 -a 0 -i 18 -k RTR
r -t 0.878089766 -s 36 -d -1 -p message -e 32 -c 2 -a 0 -i 18 -k RTR
r -t 0.878090133 -s 34 -d -1 -p message -e 32 -c 2 -a 0 -i 18 -k RTR
r -t 0.878090151 -s 17 -d -1 -p message -e 32 -c 2 -a 0 -i 18 -k RTR
r -t 0.878090186 -s 13 -d -1 -p message -e 32 -c 2 -a 0 -i 18 -k RTR
r -t 0.878090196 -s 9 -d -1 -p message -e 32 -c 2 -a 0 -i 18 -k RTR
r -t 0.878090201 -s 33 -d -1 -p message -e 32 -c 2 -a 0 -i 18 -k RTR
r -t 0.878090243 -s 38 -d -1 -p message -e 32 -c 2 -a 0 -i 18 -k RTR
r -t 0.878090260 -s 16 -d -1 -p message -e 32 -c 2 -a 0 -i 18 -k RTR
r -t 0.878090327 -s 39 -d -1 -p message -e 32 -c 2 -a 0 -i 18 -k RTR
r -t 0.878090333 -s 11 -d -1 -p message -e 32 -c 2 -a 0 -i 18 -k RTR
r -t 0.878090344 -s 22 -d -1 -p message -e 32 -c 2 -a 0 -i 18 -k RTR
r -t 0.878090368 -s 7 -d -1 -p message -e 32 -c 2 -a 0 -i 18 -k RTR
r -t 0.878090378 -s 0 -d -1 -p message -e 32 -c 2 -a 0 -i 18 -k RTR
r -t 0.878090414 -s 1 -d -1 -p message -e 32 -c 2 -a 0 -i 18 -k RTR
r -t 0.878090424 -s 10 -d -1 -p message -e 32 -c 2 -a 0 -i 18 -k RTR
r -t 0.878090459 -s 12 -d -1 -p message -e 32 -c 2 -a 0 -i 18 -k RTR
+ -t 0.883427633 -s 3 -d -1 -p message -e 32 -c 2 -a 0 -i 19 -k RTR 
- -t 0.883427633 -s 3 -d -1 -p message -e 32 -c 2 -a 0 -i 19 -k RTR
h -t 0.883427633 -s 3 -d -1 -p message -e 32 -c 2 -a 0 -i 19 -k RTR
+ -t 0.884604422 -s 2 -d -1 -p message -e 32 -c 2 -a 0 -i 20 -k RTR 
- -t 0.884604422 -s 2 -d -1 -p message -e 32 -c 2 -a 0 -i 20 -k RTR
h -t 0.884604422 -s 2 -d -1 -p message -e 32 -c 2 -a 0 -i 20 -k RTR
r -t 0.887157777 -s 14 -d -1 -p message -e 32 -c 2 -a 0 -i 19 -k RTR
r -t 0.887157829 -s 0 -d -1 -p message -e 32 -c 2 -a 0 -i 19 -k RTR
r -t 0.887157973 -s 26 -d -1 -p message -e 32 -c 2 -a 0 -i 19 -k RTR
r -t 0.887158021 -s 23 -d -1 -p message -e 32 -c 2 -a 0 -i 19 -k RTR
r -t 0.887158029 -s 17 -d -1 -p message -e 32 -c 2 -a 0 -i 19 -k RTR
r -t 0.887158080 -s 6 -d -1 -p message -e 32 -c 2 -a 0 -i 19 -k RTR
r -t 0.887158085 -s 32 -d -1 -p message -e 32 -c 2 -a 0 -i 19 -k RTR
r -t 0.887158092 -s 27 -d -1 -p message -e 32 -c 2 -a 0 -i 19 -k RTR
r -t 0.887158127 -s 24 -d -1 -p message -e 32 -c 2 -a 0 -i 19 -k RTR
r -t 0.887158183 -s 15 -d -1 -p message -e 32 -c 2 -a 0 -i 19 -k RTR
r -t 0.887158253 -s 18 -d -1 -p message -e 32 -c 2 -a 0 -i 19 -k RTR
r -t 0.887158256 -s 11 -d -1 -p message -e 32 -c 2 -a 0 -i 19 -k RTR
r -t 0.887158267 -s 4 -d -1 -p message -e 32 -c 2 -a 0 -i 19 -k RTR
r -t 0.887158330 -s 25 -d -1 -p message -e 32 -c 2 -a 0 -i 19 -k RTR
r -t 0.887158360 -s 20 -d -1 -p message -e 32 -c 2 -a 0 -i 19 -k RTR
r -t 0.887158395 -s 28 -d -1 -p message -e 32 -c 2 -a 0 -i 19 -k RTR
r -t 0.887158399 -s 2 -d -1 -p message -e 32 -c 2 -a 0 -i 19 -k RTR
r -t 0.887158424 -s 22 -d -1 -p message -e 32 -c 2 -a 0 -i 19 -k RTR
r -t 0.887158438 -s 21 -d -1 -p message -e 32 -c 2 -a 0 -i 19 -k RTR
+ -t 0.888012490 -s 32 -d -1 -p message -e 32 -c 2 -a 0 -i 21 -k RTR 
- -t 0.888012490 -s 32 -d -1 -p message -e 32 -c 2 -a 0 -i 21 -k RTR
h -t 0.888012490 -s 32 -d -1 -p message -e 32 -c 2 -a 0 -i 21 -k RTR
r -t 0.888974634 -s 37 -d -1 -p message -e 32 -c 2 -a 0 -i 20 -k RTR
r -t 0.888974704 -s 5 -d -1 -p message -e 32 -c 2 -a 0 -i 20 -k RTR
r -t 0.888974733 -s 12 -d -1 -p message -e 32 -c 2 -a 0 -i 20 -k RTR
r -t 0.888974780 -s 11 -d -1 -p message -e 32 -c 2 -a 0 -i 20 -k RTR
r -t 0.888974833 -s 27 -d -1 -p message -e 32 -c 2 -a 0 -i 20 -k RTR
r -t 0.888974839 -s 8 -d -1 -p message -e 32 -c 2 -a 0 -i 20 -k RTR
r -t 0.888974876 -s 35 -d -1 -p message -e 32 -c 2 -a 0 -i 20 -k RTR
r -t 0.888974953 -s 21 -d -1 -p message -e 32 -c 2 -a 0 -i 20 -k RTR
r -t 0.888974953 -s 29 -d -1 -p message -e 32 -c 2 -a 0 -i 20 -k RTR
r -t 0.888974973 -s 7 -d -1 -p message -e 32 -c 2 -a 0 -i 20 -k RTR
r -t 0.888975012 -s 20 -d -1 -p message -e 32 -c 2 -a 0 -i 20 -k RTR
r -t 0.888975037 -s 13 -d -1 -p message -e 32 -c 2 -a 0 -i 20 -k RTR
r -t 0.888975076 -s 9 -d -1 -p message -e 32 -c 2 -a 0 -i 20 -k RTR
r -t 0.888975109 -s 19 -d -1 -p message -e 32 -c 2 -a 0 -i 20 -k RTR
r -t 0.888975112 -s 31 -d -1 -p message -e 32 -c 2 -a 0 -i 20 -k RTR
r -t 0.888975179 -s 24 -d -1 -p message -e 32 -c 2 -a 0 -i 20 -k RTR
r -t 0.888975189 -s 3 -d -1 -p message -e 32 -c 2 -a 0 -i 20 -k RTR
r -t 0.888975192 -s 34 -d -1 -p message -e 32 -c 2 -a 0 -i 20 -k RTR
r -t 0.888975226 -s 1 -d -1 -p message -e 32 -c 2 -a 0 -i 20 -k RTR
r -t 0.888975228 -s 15 -d -1 -p message -e 32 -c 2 -a 0 -i 20 -k RTR
r -t 0.888975233 -s 18 -d -1 -p message -e 32 -c 2 -a 0 -i 20 -k RTR
r -t 0.888975236 -s 17 -d -1 -p message -e 32 -c 2 -a 0 -i 20 -k RTR
r -t 0.888975252 -s 38 -d -1 -p message -e 32 -c 2 -a 0 -i 20 -k RTR
r -t 0.891422504 -s 6 -d -1 -p message -e 32 -c 2 -a 0 -i 21 -k RTR
r -t 0.891422631 -s 26 -d -1 -p message -e 32 -c 2 -a 0 -i 21 -k RTR
r -t 0.891422712 -s 23 -d -1 -p message -e 32 -c 2 -a 0 -i 21 -k RTR
r -t 0.891422821 -s 14 -d -1 -p message -e 32 -c 2 -a 0 -i 21 -k RTR
r -t 0.891422942 -s 3 -d -1 -p message -e 32 -c 2 -a 0 -i 21 -k RTR
r -t 0.891422960 -s 0 -d -1 -p message -e 32 -c 2 -a 0 -i 21 -k RTR
r -t 0.891423168 -s 17 -d -1 -p message -e 32 -c 2 -a 0 -i 21 -k RTR
r -t 0.891423187 -s 25 -d -1 -p message -e 32 -c 2 -a 0 -i 21 -k RTR
r -t 0.891423209 -s 22 -d -1 -p message -e 32 -c 2 -a 0 -i 21 -k RTR
r -t 0.891423225 -s 24 -d -1 -p message -e 32 -c 2 -a 0 -i 21 -k RTR
r -t 0.891423252 -s 15 -d -1 -p message -e 32 -c 2 -a 0 -i 21 -k RTR
r -t 0.891423255 -s 10 -d -1 -p message -e 32 -c 2 -a 0 -i 21 -k RTR
r -t 0.891423309 -s 4 -d -1 -p message -e 32 -c 2 -a 0 -i 21 -k RTR