n -t * -s 0  -x 144 -y 302 -Z 0 -z 20  -v circle -c black
n -t * -s 1  -x 482 -y 385 -Z 0 -z 20  -v circle -c black
n -t * -s 2  -x 362 -y 176 -Z 0 -z 20  -v circle -c black
n -t * -s 3  -x 142 -y 243 -Z 0 -z 20  -v circle -c black
n -t * -s 4  -x 134 -y 53 -Z 0 -z 20  -v circle -c black
n -t * -s 5  -x 397 -y 99 -Z 0 -z 20  -v circle -c black
n -t * -s 6  -x 10 -y 268 -Z 0 -z 20  -v circle -c black
n -t * -s 7  -x 429 -y 327 -Z 0 -z 20  -v circle -c black
n -t * -s 8  -x 451 -y 264 -Z 0 -z 20  -v circle -c black
n -t * -s 9  -x 397 -y 369 -Z 0 -z 20  -v circle -c black
n -t * -s 10  -x 49 -y 490 -Z 0 -z 20  -v circle -c black
n -t * -s 11  -x 326 -y 277 -Z 0 -z 20  -v circle -c black
n -t * -s 12  -x 393 -y 264 -Z 0 -z 20  -v circle -c black
n -t * -s 13  -x 384 -y 359 -Z 0 -z 20  -v circle -c black
n -t * -s 14  -x 101 -y 229 -Z 0 -z 20  -v circle -c black
n -t * -s 15  -x 141 -y 78 -Z 0 -z 20  -v circle -c black
n -t * -s 16  -x 450 -y 500 -Z 0 -z 20  -v circle -c black
n -t * -s 17  -x 192 -y 351 -Z 0 -z 20  -v circle -c black
n -t * -s 18  -x 150 -y 57 -Z 0 -z 20  -v circle -c black
n -t * -s 19  -x 481 -y 8 -Z 0 -z 20  -v circle -c black
n -t * -s 20  -x 240 -y 48 -Z 0 -z 20  -v circle -c black
n -t * -s 21  -x 276 -y 42 -Z 0 -z 20  -v circle -c black
n -t * -s 22  -x 72 -y 470 -Z 0 -z 20  -v circle -c black
n -t * -s 23  -x 33 -y 202 -Z 0 -z 20  -v circle -c black
n -t * -s 24  -x 150 -y 95 -Z 0 -z 20  -v circle -c black
n -t * -s 25  -x 44 -y 58 -Z 0 -z 20  -v circle -c black
n -t * -s 26  -x 40 -y 236 -Z 0 -z 20  -v circle -c black
n -t * -s 27  -x 242 -y 148 -Z 0 -z 20  -v circle -c black
n -t * -s 28  -x 96 -y 19 -Z 0 -z 20  -v circle -c black
n -t * -s 29  -x 468 -y 295 -Z 0 -z 20  -v circle -c black
n -t * -s 30  -x 275 -y 470 -Z 0 -z 20  -v circle -c black
n -t * -s 31  -x 492 -y 15 -Z 0 -z 20  -v circle -c black
n -t * -s 32  -x 8 -y 264 -Z 0 -z 20  -v circle -c black
n -t * -s 33  -x 435 -y 474 -Z 0 -z 20  -v circle -c black
n -t * -s 34  -x 398 -y 404 -Z 0 -z 20  -v circle -c black
n -t * -s 35  -x 472 -y 256 -Z 0 -z 20  -v circle -c black
n -t * -s 36  -x 248 -y 482 -Z 0 -z 20  -v circle -c black
n -t * -s 37  -x 408 -y 132 -Z 0 -z 20  -v circle -c black
n -t * -s 38  -x 438 -y 413 -Z 0 -z 20  -v circle -c black
n -t * -s 39  -x 469 -y 432 -Z 0 -z 20  -v circle -c black
V -t * -v 1.0a5 -a 0
W -t * -x 500 -y 500
A -t * -n 1 -p 0 -o 0x7fffffff -c 30 -a 1
A -t * -h 1 -m 1073741823 -s 0
+ -t 0.080671574 -s 1 -d -1 -p message -e 32 -c 2 -a 0 -i 0 -k RTR 
- -t 0.080671574 -s 1 -d -1 -p message -e 32 -c 2 -a 0 -i 0 -k RTR
h -t 0.080671574 -s 1 -d -1 -p message -e 32 -c 2 -a 0 -i 0 -k RTR
r -t 0.084721737 -s 39 -d -1 -p message -e 32 -c 2 -a 0 -i 0 -k RTR
r -t 0.084721748 -s 38 -d -1 -p message -e 32 -c 2 -a 0 -i 0 -k RTR
r -t 0.084721836 -s 7 -d -1 -p message -e 32 -c 2 -a 0 -i 0 -k RTR
r -t 0.084721861 -s 34 -d -1 -p message -e 32 -c 2 -a 0 -i 0 -k RTR
r -t 0.084721863 -s 9 -d -1 -p message -e 32 -c 2 -a 0 -i 0 -k RTR
r -t 0.084721878 -s 29 -d -1 -p message -e 32 -c 2 -a 0 -i 0 -k RTR
r -t 0.084721910 -s 33 -d -1 -p message -e 32 -c 2 -a 0 -i 0 -k RTR
r -t 0.084721912 -s 13 -d -1 -p message -e 32 -c 2 -a 0 -i 0 -k RTR
r -t 0.084721972 -s 16 -d -1 -p message -e 32 -c 2 -a 0 -i 0 -k RTR
r -t 0.084721991 -s 8 -d -1 -p message -e 32 -c 2 -a 0 -i 0 -k RTR
r -t 0.084722006 -s 35 -d -1 -p message -e 32 -c 2 -a 0 -i 0 -k RTR
r -t 0.084722075 -s 12 -d -1 -p message -e 32 -c 2 -a 0 -i 0 -k RTR
r -t 0.084722207 -s 11 -d -1 -p message -e 32 -c 2 -a 0 -i 0 -k RTR
r -t 0.084722320 -s 30 -d -1 -p message -e 32 -c 2 -a 0 -i 0 -k RTR
r -t 0.084722378 -s 2 -d -1 -p message -e 32 -c 2 -a 0 -i 0 -k RTR
+ -t 0.118169808 -s 6 -d -1 -p message -e 32 -c 2 -a 0 -i 1 -k RTR 
- -t 0.118169808 -s 6 -d -1 -p message -e 32 -c 2 -a 0 -i 1 -k RTR
h -t 0.118169808 -s 6 -d -1 -p message -e 32 -c 2 -a 0 -i 1 -k RTR
r -t 0.121899823 -s 32 -d -1 -p message -e 32 -c 2 -a 0 -i 1 -k RTR
r -t 0.121899954 -s 26 -d -1 -p message -e 32 -c 2 -a 0 -i 1 -k RTR
r -t 0.121900041 -s 23 -d -1 -p message -e 32 -c 2 -a 0 -i 1 -k RTR
r -t 0.121900138 -s 14 -d -1 -p message -e 32 -c 2 -a 0 -i 1 -k RTR
r -t 0.121900256 -s 3 -d -1 -p message -e 32 -c 2 -a 0 -i 1 -k RTR
r -t 0.121900269 -s 0 -d -1 -p message -e 32 -c 2 -a 0 -i 1 -k RTR
r -t 0.121900475 -s 17 -d -1 -p message -e 32 -c 2 -a 0 -i 1 -k RTR
r -t 0.121900513 -s 22 -d -1 -p message -e 32 -c 2 -a 0 -i 1 -k RTR
r -t 0.121900517 -s 25 -d -1 -p message -e 32 -c 2 -a 0 -i 1 -k RTR
r -t 0.121900550 -s 24 -d -1 -p message -e 32 -c 2 -a 0 -i 1 -k RTR
r -t 0.121900560 -s 10 -d -1 -p message -e 32 -c 2 -a 0 -i 1 -k RTR
r -t 0.121900578 -s 15 -d -1 -p message -e 32 -c 2 -a 0 -i 1 -k RTR
r -t 0.121900636 -s 4 -d -1 -p message -e 32 -c 2 -a 0 -i 1 -k RTR
+ -t 0.136561445 -s 22 -d -1 -p message -e 32 -c 2 -a 0 -i 2 -k RTR 
- -t 0.136561445 -s 22 -d -1 -p message -e 32 -c 2 -a 0 -i 2 -k RTR
h -t 0.136561445 -s 22 -d -1 -p message -e 32 -c 2 -a 0 -i 2 -k RTR
r -t 0.139011547 -s 10 -d -1 -p message -e 32 -c 2 -a 0 -i 2 -k RTR
r -t 0.139012009 -s 17 -d -1 -p message -e 32 -c 2 -a 0 -i 2 -k RTR
r -t 0.139012033 -s 36 -d -1 -p message -e 32 -c 2 -a 0 -i 2 -k RTR
r -t 0.139012055 -s 0 -d -1 -p message -e 32 -c 2 -a 0 -i 2 -k RTR
r -t 0.139012122 -s 30 -d -1 -p message -e 32 -c 2 -a 0 -i 2 -k RTR
r -t 0.139012150 -s 6 -d -1 -p message -e 32 -c 2 -a 0 -i 2 -k RTR
r -t 0.139012164 -s 32 -d -1 -p message -e 32 -c 2 -a 0 -i 2 -k RTR
r -t 0.139012233 -s 26 -d -1 -p message -e 32 -c 2 -a 0 -i 2 -k RTR
r -t 0.139012237 -s 3 -d -1 -p message -e 32 -c 2 -a 0 -i 2 -k RTR
r -t 0.139012254 -s 14 -d -1 -p message -e 32 -c 2 -a 0 -i 2 -k RTR
+ -t 0.313126268 -s 18 -d -1 -p message -e 32 -c 2 -a 0 -i 3 -k RTR 
- -t 0.313126268 -s 18 -d -1 -p message -e 32 -c 2 -a 0 -i 3 -k RTR
h -t 0.313126268 -s 18 -d -1 -p message -e 32 -c 2 -a 0 -i 3 -k RTR
r -t 0.317816323 -s 4 -d -1 -p message -e 32 -c 2 -a 0 -i 3 -k RTR
r -t 0.317816345 -s 15 -d -1 -p message -e 32 -c 2 -a 0 -i 3 -k RTR
r -t 0.317816395 -s 24 -d -1 -p message -e 32 -c 2 -a 0 -i 3 -k RTR
r -t 0.317816488 -s 28 -d -1 -p message -e 32 -c 2 -a 0 -i 3 -k RTR
r -t 0.317816570 -s 20 -d -1 -p message -e 32 -c 2 -a 0 -i 3 -k RTR
r -t 0.317816622 -s 25 -d -1 -p message -e 32 -c 2 -a 0 -i 3 -k RTR
r -t 0.317816691 -s 21 -d -1 -p message -e 32 -c 2 -a 0 -i 3 -k RTR
r -t 0.317816700 -s 27 -d -1 -p message -e 32 -c 2 -a 0 -i 3 -k RTR
r -t 0.317816864 -s 14 -d -1 -p message -e 32 -c 2 -a 0 -i 3 -k RTR
r -t 0.317816889 -s 3 -d -1 -p message -e 32 -c 2 -a 0 -i 3 -k RTR
r -t 0.317816889 -s 23 -d -1 -p message -e 32 -c 2 -a 0 -i 3 -k RTR
r -t 0.317816969 -s 26 -d -1 -p message -e 32 -c 2 -a 0 -i 3 -k RTR
r -t 0.317817079 -s 2 -d -1 -p message -e 32 -c 2 -a 0 -i 3 -k RTR
r -t 0.317817085 -s 0 -d -1 -p message -e 32 -c 2 -a 0 -i 3 -k RTR
+ -t 0.328015452 -s 33 -d -1 -p message -e 32 -c 2 -a 0 -i 4 -k RTR 
- -t 0.328015452 -s 33 -d -1 -p message -e 32 -c 2 -a 0 -i 4 -k RTR
h -t 0.328015452 -s 33 -d -1 -p message -e 32 -c 2 -a 0 -i 4 -k RTR
r -t 0.332065552 -s 16 -d -1 -p message -e 32 -c 2 -a 0 -i 4 -k RTR
r -t 0.332065632 -s 39 -d -1 -p message -e 32 -c 2 -a 0 -i 4 -k RTR
r -t 0.332065656 -s 38 -d -1 -p message -e 32 -c 2 -a 0 -i 4 -k RTR
r -t 0.332065716 -s 34 -d -1 -p message -e 32 -c 2 -a 0 -i 4 -k RTR
r -t 0.332065788 -s 1 -d -1 -p message -e 32 -c 2 -a 0 -i 4 -k RTR
r -t 0.332065824 -s 9 -d -1 -p message -e 32 -c 2 -a 0 -i 4 -k RTR
r -t 0.332065871 -s 13 -d -1 -p message -e 32 -c 2 -a 0 -i 4 -k RTR
r -t 0.332065942 -s 7 -d -1 -p message -e 32 -c 2 -a 0 -i 4 -k RTR
r -t 0.332065986 -s 30 -d -1 -p message -e 32 -c 2 -a 0 -i 4 -k RTR
r -t 0.332066059 -s 29 -d -1 -p message -e 32 -c 2 -a 0 -i 4 -k RTR
r -t 0.332066076 -s 36 -d -1 -p message -e 32 -c 2 -a 0 -i 4 -k RTR
r -t 0.332066154 -s 8 -d -1 -p message -e 32 -c 2 -a 0 -i 4 -k RTR
r -t 0.332066166 -s 12 -d -1 -p message -e 32 -c 2 -a 0 -i 4 -k RTR
r -t 0.332066189 -s 35 -d -1 -p message -e 32 -c 2 -a 0 -i 4 -k RTR
r -t 0.332066203 -s 11 -d -1 -p message -e 32 -c 2 -a 0 -i 4 -k RTR
+ -t 0.417199696 -s 30 -d -1 -p message -e 32 -c 2 -a 0 -i 5 -k RTR 
- -t 0.417199696 -s 30 -d -1 -p message -e 32 -c 2 -a 0 -i 5 -k RTR
h -t 0.417199696 -s 30 -d -1 -p message -e 32 -c 2 -a 0 -i 5 -k RTR
r -t 0.420929794 -s 36 -d -1 -p message -e 32 -c 2 -a 0 -i 5 -k RTR
r -t 0.420930161 -s 34 -d -1 -p message -e 32 -c 2 -a 0 -i 5 -k RTR
r -t 0.420930180 -s 17 -d -1 -p message -e 32 -c 2 -a 0 -i 5 -k RTR
r -t 0.420930215 -s 13 -d -1 -p message -e 32 -c 2 -a 0 -i 5 -k RTR
r -t 0.420930224 -s 9 -d -1 -p message -e 32 -c 2 -a 0 -i 5 -k RTR
r -t 0.420930229 -s 33 -d -1 -p message -e 32 -c 2 -a 0 -i 5 -k RTR
r -t 0.420930272 -s 38 -d -1 -p message -e 32 -c 2 -a 0 -i 5 -k RTR
r -t 0.420930288 -s 16 -d -1 -p message -e 32 -c 2 -a 0 -i 5 -k RTR
r -t 0.420930355 -s 39 -d -1 -p message -e 32 -c 2 -a 0 -i 5 -k RTR
r -t 0.420930361 -s 11 -d -1 -p message -e 32 -c 2 -a 0 -i 5 -k RTR
r -t 0.420930373 -s 22 -d -1 -p message -e 32 -c 2 -a 0 -i 5 -k RTR
r -t 0.420930396 -s 7 -d -1 -p message -e 32 -c 2 -a 0 -i 5 -k RTR
r -t 0.420930406 -s 0 -d -1 -p message -e 32 -c 2 -a 0 -i 5 -k RTR
r -t 0.420930442 -s 1 -d -1 -p message -e 32 -c 2 -a 0 -i 5 -k RTR
r -t 0.420930452 -s 10 -d -1 -p message -e 32 -c 2 -a 0 -i 5 -k RTR
r -t 0.420930487 -s 12 -d -1 -p message -e 32 -c 2 -a 0 -i 5 -k RTR
+ -t 0.457831686 -s 4 -d -1 -p message -e 32 -c 2 -a 0 -i 6 -k RTR 
- -t 0.457831686 -s 4 -d -1 -p message -e 32 -c 2 -a 0 -i 6 -k RTR
h -t 0.457831686 -s 4 -d -1 -p message -e 32 -c 2 -a 0 -i 6 -k RTR
r -t 0.462521741 -s 18 -d -1 -p message -e 32 -c 2 -a 0 -i 6 -k RTR
r -t 0.462521772 -s 15 -d -1 -p message -e 32 -c 2 -a 0 -i 6 -k RTR
r -t 0.462521836 -s 24 -d -1 -p message -e 32 -c 2 -a 0 -i 6 -k RTR
r -t 0.462521856 -s 28 -d -1 -p message -e 32 -c 2 -a 0 -i 6 -k RTR
r -t 0.462521986 -s 25 -d -1 -p message -e 32 -c 2 -a 0 -i 6 -k RTR
r -t 0.462522040 -s 20 -d -1 -p message -e 32 -c 2 -a 0 -i 6 -k RTR
r -t 0.462522161 -s 21 -d -1 -p message -e 32 -c 2 -a 0 -i 6 -k RTR
r -t 0.462522165 -s 27 -d -1 -p message -e 32 -c 2 -a 0 -i 6 -k RTR
r -t 0.462522283 -s 14 -d -1 -p message -e 32 -c 2 -a 0 -i 6 -k RTR
r -t 0.462522286 -s 23 -d -1 -p message -e 32 -c 2 -a 0 -i 6 -k RTR
r -t 0.462522320 -s 3 -d -1 -p message -e 32 -c 2 -a 0 -i 6 -k RTR
r -t 0.462522372 -s 26 -d -1 -p message -e 32 -c 2 -a 0 -i 6 -k RTR
r -t 0.462522505 -s 32 -d -1 -p message -e 32 -c 2 -a 0 -i 6 -k RTR
r -t 0.462522513 -s 6 -d -1 -p message -e 32 -c 2 -a 0 -i 6 -k RTR
r -t 0.462522517 -s 0 -d -1 -p message -e 32 -c 2 -a 0 -i 6 -k RTR
+ -t 0.466527473 -s 11 -d -1 -p message -e 32 -c 2 -a 0 -i 7 -k RTR 
- -t 0.466527473 -s 11 -d -1 -p message -e 32 -c 2 -a 0 -i 7 -k RTR
h -t 0.466527473 -s 11 -d -1 -p message -e 32 -c 2 -a 0 -i 7 -k RTR
r -t 0.469937700 -s 12 -d -1 -p message -e 32 -c 2 -a 0 -i 7 -k RTR
r -t 0.469937807 -s 13 -d -1 -p message -e 32 -c 2 -a 0 -i 7 -k RTR
r -t 0.469937830 -s 2 -d -1 -p message -e 32 -c 2 -a 0 -i 7 -k RTR
r -t 0.469937854 -s 7 -d -1 -p message -e 32 -c 2 -a 0 -i 7 -k RTR
r -t 0.469937860 -s 9 -d -1 -p message -e 32 -c 2 -a 0 -i 7 -k RTR
r -t 0.469937891 -s 8 -d -1 -p message -e 32 -c 2 -a 0 -i 7 -k RTR
r -t 0.469937950 -s 29 -d -1 -p message -e 32 -c 2 -a 0 -i 7 -k RTR
r -t 0.469937959 -s 34 -d -1 -p message -e 32 -c 2 -a 0 -i 7 -k RTR
r -t 0.469937964 -s 35 -d -1 -p message -e 32 -c 2 -a 0 -i 7 -k RTR
r -t 0.469937983 -s 17 -d -1 -p message -e 32 -c 2 -a 0 -i 7 -k RTR
r -t 0.469937986 -s 27 -d -1 -p message -e 32 -c 2 -a 0 -i 7 -k RTR
r -t 0.469938028 -s 37 -d -1 -p message -e 32 -c 2 -a 0 -i 7 -k RTR
r -t 0.469938060 -s 38 -d -1 -p message -e 32 -c 2 -a 0 -i 7 -k RTR
r -t 0.469938085 -s 0 -d -1 -p message -e 32 -c 2 -a 0 -i 7 -k RTR
r -t 0.469938096 -s 3 -d -1 -p message -e 32 -c 2 -a 0 -i 7 -k RTR
r -t 0.469938105 -s 1 -d -1 -p message -e 32 -c 2 -a 0 -i 7 -k RTR
r -t 0.469938111 -s 5 -d -1 -p message -e 32 -c 2 -a 0 -i 7 -k RTR
r -t 0.469938138 -s 30 -d -1 -p message -e 32 -c 2 -a 0 -i 7 -k RTR
r -t 0.469938175 -s 39 -d -1 -p message -e 32 -c 2 -a 0 -i 7 -k RTR
r -t 0.469938204 -s 36 -d -1 -p message -e 32 -c 2 -a 0 -i 7 -k RTR
r -t 0.469938223 -s 33 -d -1 -p message -e 32 -c 2 -a 0 -i 7 -k RTR
r -t 0.469938239 -s 14 -d -1 -p message -e 32 -c 2 -a 0 -i 7 -k RTR
r -t 0.469938273 -s 21 -d -1 -p message -e 32 -c 2 -a 0 -i 7 -k RTR
r -t 0.469938288 -s 20 -d -1 -p message -e 32 -c 2 -a 0 -i 7 -k RTR
+ -t 0.526482483 -s 27 -d -1 -p message -e 32 -c 2 -a 0 -i 8 -k RTR 
- -t 0.526482483 -s 27 -d -1 -p message -e 32 -c 2 -a 0 -i 8 -k RTR
h -t 0.526482483 -s 27 -d -1 -p message -e 32 -c 2 -a 0 -i 8 -k RTR
r -t 0.529252817 -s 20 -d -1 -p message -e 32 -c 2 -a 0 -i 8 -k RTR
r -t 0.529252837 -s 24 -d -1 -p message -e 32 -c 2 -a 0 -i 8 -k RTR
r -t 0.529252854 -s 21 -d -1 -p message -e 32 -c 2 -a 0 -i 8 -k RTR
r -t 0.529252893 -s 15 -d -1 -p message -e 32 -c 2 -a 0 -i 8 -k RTR
r -t 0.529252894 -s 2 -d -1 -p message -e 32 -c 2 -a 0 -i 8 -k RTR
r -t 0.529252915 -s 18 -d -1 -p message -e 32 -c 2 -a 0 -i 8 -k RTR
r -t 0.529252943 -s 3 -d -1 -p message -e 32 -c 2 -a 0 -i 8 -k RTR
r -t 0.529252963 -s 4 -d -1 -p message -e 32 -c 2 -a 0 -i 8 -k RTR
r -t 0.529252997 -s 11 -d -1 -p message -e 32 -c 2 -a 0 -i 8 -k RTR
r -t 0.529253025 -s 5 -d -1 -p message -e 32 -c 2 -a 0 -i 8 -k RTR
r -t 0.529253025 -s 14 -d -1 -p message -e 32 -c 2 -a 0 -i 8 -k RTR
r -t 0.529253039 -s 37 -d -1 -p message -e 32 -c 2 -a 0 -i 8 -k RTR
r -t 0.529253092 -s 0 -d -1 -p message -e 32 -c 2 -a 0 -i 8 -k RTR
r -t 0.529253118 -s 12 -d -1 -p message -e 32 -c 2 -a 0 -i 8 -k RTR
r -t 0.529253133 -s 28 -d -1 -p message -e 32 -c 2 -a 0 -i 8 -k RTR
r -t 0.529253180 -s 17 -d -1 -p message -e 32 -c 2 -a 0 -i 8 -k RTR
r -t 0.529253203 -s 23 -d -1 -p message -e 32 -c 2 -a 0 -i 8 -k RTR
r -t 0.529253208 -s 25 -d -1 -p message -e 32 -c 2 -a 0 -i 8 -k RTR
r -t 0.529253218 -s 26 -d -1 -p message -e 32 -c 2 -a 0 -i 8 -k RTR
r -t 0.529253280 -s 8 -d -1 -p message -e 32 -c 2 -a 0 -i 8 -k RTR
+ -t 0.534269246 -s 34 -d -1 -p message -e 32 -c 2 -a 0 -i 9 -k RTR 
- -t 0.534269246 -s 34 -d -1 -p message -e 32 -c 2 -a 0 -i 9 -k RTR
h -t 0.534269246 -s 34 -d -1 -p message -e 32 -c 2 -a 0 -i 9 -k RTR
r -t 0.538639362 -s 9 -d -1 -p message -e 32 -c 2 -a 0 -i 9 -k RTR
r -t 0.538639382 -s 38 -d -1 -p message -e 32 -c 2 -a 0 -i 9 -k RTR
r -t 0.538639403 -s 13 -d -1 -p message -e 32 -c 2 -a 0 -i 9 -k RTR
r -t 0.538639500 -s 39 -d -1 -p message -e 32 -c 2 -a 0 -i 9 -k RTR
r -t 0.538639510 -s 33 -d -1 -p message -e 32 -c 2 -a 0 -i 9 -k RTR
r -t 0.538639522 -s 7 -d -1 -p message -e 32 -c 2 -a 0 -i 9 -k RTR
r -t 0.538639533 -s 1 -d -1 -p message -e 32 -c 2 -a 0 -i 9 -k RTR
r -t 0.538639610 -s 16 -d -1 -p message -e 32 -c 2 -a 0 -i 9 -k RTR
r -t 0.538639677 -s 29 -d -1 -p message -e 32 -c 2 -a 0 -i 9 -k RTR
r -t 0.538639711 -s 30 -d -1 -p message -e 32 -c 2 -a 0 -i 9 -k RTR
r -t 0.538639713 -s 12 -d -1 -p message -e 32 -c 2 -a 0 -i 9 -k RTR
r -t 0.538639732 -s 11 -d -1 -p message -e 32 -c 2 -a 0 -i 9 -k RTR
r -t 0.538639745 -s 8 -d -1 -p message -e 32 -c 2 -a 0 -i 9 -k RTR
r -t 0.538639797 -s 35 -d -1 -p message -e 32 -c 2 -a 0 -i 9 -k RTR
r -t 0.538639809 -s 36 -d -1 -p message -e 32 -c 2 -a 0 -i 9 -k RTR
r -t 0.538639955 -s 17 -d -1 -p message -e 32 -c 2 -a 0 -i 9 -k RTR
r -t 0.538640015 -s 2 -d -1 -p message -e 32 -c 2 -a 0 -i 9 -k RTR
+ -t 0.561056360 -s 39 -d -1 -p message -e 32 -c 2 -a 0 -i 10 -k RTR 
- -t 0.561056360 -s 39 -d -1 -p message -e 32 -c 2 -a 0 -i 10 -k RTR
h -t 0.561056360 -s 39 -d -1 -p message -e 32 -c 2 -a 0 -i 10 -k RTR
r -t 0.564786481 -s 38 -d -1 -p message -e 32 -c 2 -a 0 -i 10 -k RTR
r -t 0.564786522 -s 1 -d -1 -p message -e 32 -c 2 -a 0 -i 10 -k RTR
r -t 0.564786540 -s 33 -d -1 -p message -e 32 -c 2 -a 0 -i 10 -k RTR
r -t 0.564786595 -s 16 -d -1 -p message -e 32 -c 2 -a 0 -i 10 -k RTR
r -t 0.564786614 -s 34 -d -1 -p message -e 32 -c 2 -a 0 -i 10 -k RTR
r -t 0.564786679 -s 9 -d -1 -p message -e 32 -c 2 -a 0 -i 10 -k RTR
r -t 0.564786733 -s 13 -d -1 -p message -e 32 -c 2 -a 0 -i 10 -k RTR
r -t 0.564786734 -s 7 -d -1 -p message -e 32 -c 2 -a 0 -i 10 -k RTR
r -t 0.564786817 -s 29 -d -1 -p message -e 32 -c 2 -a 0 -i 10 -k RTR
r -t 0.564786923 -s 8 -d -1 -p message -e 32 -c 2 -a 0 -i 10 -k RTR
r -t 0.564786947 -s 35 -d -1 -p message -e 32 -c 2 -a 0 -i 10 -k RTR
r -t 0.564786975 -s 12 -d -1 -p message -e 32 -c 2 -a 0 -i 10 -k RTR
r -t 0.564787019 -s 30 -d -1 -p message -e 32 -c 2 -a 0 -i 10 -k RTR
r -t 0.564787063 -s 11 -d -1 -p message -e 32 -c 2 -a 0 -i 10 -k RTR
r -t 0.564787115 -s 36 -d -1 -p message -e 32 -c 2 -a 0 -i 10 -k RTR
+ -t 0.684797127 -s 7 -d -1 -p message -e 32 -c 2 -a 0 -i 11 -k RTR 
- -t 0.684797127 -s 7 -d -1 -p message -e 32 -c 2 -a 0 -i 11 -k RTR
h -t 0.684797127 -s 7 -d -1 -p message -e 32 -c 2 -a 0 -i 11 -k RTR
r -t 0.687247295 -s 29 -d -1 -p message -e 32 -c 2 -a 0 -i 11 -k RTR
r -t 0.687247303 -s 9 -d -1 -p message -e 32 -c 2 -a 0 -i 11 -k RTR
r -t 0.687247311 -s 13 -d -1 -p message -e 32 -c 2 -a 0 -i 11 -k RTR
r -t 0.687247349 -s 8 -d -1 -p message -e 32 -c 2 -a 0 -i 11 -k RTR
r -t 0.687247369 -s 12 -d -1 -p message -e 32 -c 2 -a 0 -i 11 -k RTR
r -t 0.687247389 -s 1 -d -1 -p message -e 32 -c 2 -a 0 -i 11 -k RTR
r -t 0.687247403 -s 34 -d -1 -p message -e 32 -c 2 -a 0 -i 11 -k RTR
r -t 0.687247403 -s 35 -d -1 -p message -e 32 -c 2 -a 0 -i 11 -k RTR
r -t 0.687247415 -s 38 -d -1 -p message -e 32 -c 2 -a 0 -i 11 -k RTR
r -t 0.687247501 -s 39 -d -1 -p message -e 32 -c 2 -a 0 -i 11 -k RTR
r -t 0.687247508 -s 11 -d -1 -p message -e 32 -c 2 -a 0 -i 11 -k RTR
r -t 0.687247617 -s 33 -d -1 -p message -e 32 -c 2 -a 0 -i 11 -k RTR
r -t 0.687247677 -s 2 -d -1 -p message -e 32 -c 2 -a 0 -i 11 -k RTR
r -t 0.687247708 -s 16 -d -1 -p message -e 32 -c 2 -a 0 -i 11 -k RTR
r -t 0.687247781 -s 37 -d -1 -p message -e 32 -c 2 -a 0 -i 11 -k RTR
r -t 0.687247827 -s 30 -d -1 -p message -e 32 -c 2 -a 0 -i 11 -k RTR
r -t 0.687247894 -s 5 -d -1 -p message -e 32 -c 2 -a 0 -i 11 -k RTR
r -t 0.687247921 -s 17 -d -1 -p message -e 32 -c 2 -a 0 -i 11 -k RTR
r -t 0.687247921 -s 36 -d -1 -p message -e 32 -c 2 -a 0 -i 11 -k RTR
+ -t 0.764173693 -s 35 -d -1 -p message -e 32 -c 2 -a 0 -i 12 -k RTR 
- -t 0.764173693 -s 35 -d -1 -p message -e 32 -c 2 -a 0 -i 12 -k RTR
h -t 0.764173693 -s 35 -d -1 -p message -e 32 -c 2 -a 0 -i 12 -k RTR
r -t 0.768543768 -s 8 -d -1 -p message -e 32 -c 2 -a 0 -i 12 -k RTR
r -t 0.768543823 -s 29 -d -1 -p message -e 32 -c 2 -a 0 -i 12 -k RTR
r -t 0.768543957 -s 12 -d -1 -p message -e 32 -c 2 -a 0 -i 12 -k RTR
r -t 0.768543969 -s 7 -d -1 -p message -e 32 -c 2 -a 0 -i 12 -k RTR
r -t 0.768544124 -s 1 -d -1 -p message -e 32 -c 2 -a 0 -i 12 -k RTR
r -t 0.768544144 -s 13 -d -1 -p message -e 32 -c 2 -a 0 -i 12 -k RTR
r -t 0.768544145 -s 9 -d -1 -p message -e 32 -c 2 -a 0 -i 12 -k RTR
r -t 0.768544146 -s 2 -d -1 -p message -e 32 -c 2 -a 0 -i 12 -k RTR
r -t 0.768544158 -s 37 -d -1 -p message -e 32 -c 2 -a 0 -i 12 -k RTR
r -t 0.768544184 -s 11 -d -1 -p message -e 32 -c 2 -a 0 -i 12 -k RTR
r -t 0.768544228 -s 38 -d -1 -p message -e 32 -c 2 -a 0 -i 12 -k RTR
r -t 0.768544244 -s 34 -d -1 -p message -e 32 -c 2 -a 0 -i 12 -k RTR
r -t 0.768544273 -s 5 -d -1 -p message -e 32 -c 2 -a 0 -i 12 -k RTR
r -t 0.768544279 -s 39 -d -1 -p message -e 32 -c 2 -a 0 -i 12 -k RTR
r -t 0.768544430 -s 33 -d -1 -p message -e 32 -c 2 -a 0 -i 12 -k RTR
r -t 0.768544499 -s 31 -d -1 -p message -e 32 -c 2 -a 0 -i 12 -k RTR
r -t 0.768544509 -s 16 -d -1 -p message -e 32 -c 2 -a 0 -i 12 -k RTR
r -t 0.768544520 -s 19 -d -1 -p message -e 32 -c 2 -a 0 -i 12 -k RTR
+ -t 0.875803877 -s 10 -d -1 -p message -e 32 -c 2 -a 0 -i 13 -k RTR 
- -t 0.875803877 -s 10 -d -1 -p message -e 32 -c 2 -a 0 -i 13 -k RTR
h -t 0.875803877 -s 10 -d -1 -p message -e 32 -c 2 -a 0 -i 13 -k RTR
r -t 0.878253978 -s 22 -d -1 -p message -e 32 -c 2 -a 0 -i 13 -k RTR
r -t 0.878254541 -s 36 -d -1 -p message -e 32 -c 2 -a 0 -i 13 -k RTR
r -t 0.878254542 -s 17 -d -1 -p message -e 32 -c 2 -a 0 -i 13 -k RTR
r -t 0.878254579 -s 0 -d -1 -p message -e 32 -c 2 -a 0 -i 13 -k RTR
r -t 0.878254628 -s 6 -d -1 -p message -e 32 -c 2 -a 0 -i 13 -k RTR
r -t 0.878254633 -s 30 -d -1 -p message -e 32 -c 2 -a 0 -i 13 -k RTR
r -t 0.878254643 -s 32 -d -1 -p message -e 32 -c 2 -a 0 -i 13 -k RTR
+ -t 0.884084341 -s 12 -d -1 -p message -e 32 -c 2 -a 0 -i 14 -k RTR 
- -t 0.884084341 -s 12 -d -1 -p message -e 32 -c 2 -a 0 -i 14 -k RTR
h -t 0.884084341 -s 12 -d -1 -p message -e 32 -c 2 -a 0 -i 14 -k RTR
r -t 0.886534535 -s 8 -d -1 -p message -e 32 -c 2 -a 0 -i 14 -k RTR
r -t 0.886534569 -s 11 -d -1 -p message -e 32 -c 2 -a 0 -i 14 -k RTR
r -t 0.886534583 -s 7 -d -1 -p message -e 32 -c 2 -a 0 -i 14 -k RTR
r -t 0.886534606 -s 35 -d -1 -p message -e 32 -c 2 -a 0 -i 14 -k RTR
r -t 0.886534612 -s 29 -d -1 -p message -e 32 -c 2 -a 0 -i 14 -k RTR
r -t 0.886534652 -s 2 -d -1 -p message -e 32 -c 2 -a 0 -i 14 -k RTR
r -t 0.886534659 -s 13 -d -1 -p message -e 32 -c 2 -a 0 -i 14 -k RTR
r -t 0.886534692 -s 9 -d -1 -p message -e 32 -c 2 -a 0 -i 14 -k RTR
r -t 0.886534784 -s 37 -d -1 -p message -e 32 -c 2 -a 0 -i 14 -k RTR
r -t 0.886534808 -s 34 -d -1 -p message -e 32 -c 2 -a 0 -i 14 -k RTR
r -t 0.886534842 -s 1 -d -1 -p message -e 32 -c 2 -a 0 -i 14 -k RTR
r -t 0.886534860 -s 38 -d -1 -p message -e 32 -c 2 -a 0 -i 14 -k RTR
r -t 0.886534891 -s 5 -d -1 -p message -e 32 -c 2 -a 0 -i 14 -k RTR
r -t 0.886534956 -s 39 -d -1 -p message -e 32 -c 2 -a 0 -i 14 -k RTR
r -t 0.886534976 -s 27 -d -1 -p message -e 32 -c 2 -a 0 -i 14 -k RTR
r -t 0.886535055 -s 33 -d -1 -p message -e 32 -c 2 -a 0 -i 14 -k RTR
r -t 0.886535071 -s 17 -d -1 -p message -e 32 -c 2 -a 0 -i 14 -k RTR
r -t 0.886535133 -s 30 -d -1 -p message -e 32 -c 2 -a 0 -i 14 -k RTR
r -t 0.886535151 -s 16 -d -1 -p message -e 32 -c 2 -a 0 -i 14 -k RTR
+ -t 0.924998535 -s 14 -d -1 -p message -e 32 -c 2 -a 0 -i 15 -k RTR 
- -t 0.924998535 -s 14 -d -1 -p message -e 32 -c 2 -a 0 -i 15 -k RTR
h -t 0.924998535 -s 14 -d -1 -p message -e 32 -c 2 -a 0 -i 15 -k RTR
r -t 0.928408679 -s 3 -d -1 -p message -e 32 -c 2 -a 0 -i 15 -k RTR
r -t 0.928408740 -s 26 -d -1 -p message -e 32 -c 2 -a 0 -i 15 -k RTR
r -t 0.928408779 -s 23 -d -1 -p message -e 32 -c 2 -a 0 -i 15 -k RTR
r -t 0.928408817 -s 0 -d -1 -p message -e 32 -c 2 -a 0 -i 15 -k RTR
r -t 0.928408865 -s 6 -d -1 -p message -e 32 -c 2 -a 0 -i 15 -k RTR
r -t 0.928408866 -s 32 -d -1 -p message -e 32 -c 2 -a 0 -i 15 -k RTR
r -t 0.928409011 -s 24 -d -1 -p message -e 32 -c 2 -a 0 -i 15 -k RTR
r -t 0.928409042 -s 17 -d -1 -p message -e 32 -c 2 -a 0 -i 15 -k RTR
r -t 0.928409056 -s 15 -d -1 -p message -e 32 -c 2 -a 0 -i 15 -k RTR
r -t 0.928409077 -s 27 -d -1 -p message -e 32 -c 2 -a 0 -i 15 -k RTR
r -t 0.928409131 -s 18 -d -1 -p message -e 32 -c 2 -a 0 -i 15 -k RTR
r -t 0.928409132 -s 4 -d -1 -p message -e 32 -c 2 -a 0 -i 15 -k RTR
r -t 0.928409136 -s 25 -d -1 -p message -e 32 -c 2 -a 0 -i 15 -k RTR
r -t 0.928409235 -s 28 -d -1 -p message -e 32 -c 2 -a 0 -i 15 -k RTR
r -t 0.928409296 -s 20 -d -1 -p message -e 32 -c 2 -a 0 -i 15 -k RTR
r -t 0.928409302 -s 11 -d -1 -p message -e 32 -c 2 -a 0 -i 15 -k RTR
r -t 0.928409344 -s 22 -d -1 -p message -e 32 -c 2 -a 0 -i 15 -k RTR
+ -t 0.961796440 -s 28 -d -1 -p message -e 32 -c 2 -a 0 -i 16 -k RTR 
- -t 0.961796440 -s 28 -d -1 -p message -e 32 -c 2 -a 0 -i 16 -k RTR
h -t 0.961796440 -s 28 -d -1 -p message -e 32 -c 2 -a 0 -i 16 -k RTR
r -t 0.966486610 -s 4 -d -1 -p message -e 32 -c 2 -a 0 -i 16 -k RTR
r -t 0.966486657 -s 25 -d -1 -p message -e 32 -c 2 -a 0 -i 16 -k RTR
r -t 0.966486660 -s 18 -d -1 -p message -e 32 -c 2 -a 0 -i 16 -k RTR
r -t 0.966486687 -s 15 -d -1 -p message -e 32 -c 2 -a 0 -i 16 -k RTR
r -t 0.966486751 -s 24 -d -1 -p message -e 32 -c 2 -a 0 -i 16 -k RTR
r -t 0.966486930 -s 20 -d -1 -p message -e 32 -c 2 -a 0 -i 16 -k RTR
r -t 0.966487045 -s 21 -d -1 -p message -e 32 -c 2 -a 0 -i 16 -k RTR
r -t 0.966487085 -s 23 -d -1 -p message -e 32 -c 2 -a 0 -i 16 -k RTR
r -t 0.966487089 -s 27 -d -1 -p message -e 32 -c 2 -a 0 -i 16 -k RTR
r -t 0.966487140 -s 14 -d -1 -p message -e 32 -c 2 -a 0 -i 16 -k RTR
r -t 0.966487187 -s 26 -d -1 -p message -e 32 -c 2 -a 0 -i 16 -k RTR
r -t 0.966487202 -s 3 -d -1 -p message -e 32 -c 2 -a 0 -i 16 -k RTR
n -t 1.000000 -s 0 -x 144.000000 -y 302.000000 -U 3.992210 -V -0.249513 -T 76.148293
n -t 1.000000 -s 1 -x 482.000000 -y 385.000000 -U -0.822897 -V 0.568191 -T 102.078401
n -t 1.000000 -s 2 -x 362.000000 -y 176.000000 -U -1.998906 -V 0.066140 -T 136.074428
n -t 1.000000 -s 3 -x 142.000000 -y 243.000000 -U -0.846495 -V -1.812028 -T 75.605886
n -t 1.000000 -s 4 -x 134.000000 -y 53.000000 -U 0.863958 -V 0.503564 -T 202.556165
n -t 1.000000 -s 5 -x 397.000000 -y 99.000000 -U -1.998592 -V -0.075032 -T 146.603206
n -t 1.000000 -s 6 -x 10.000000 -y 268.000000 -U 3.945576 -V -0.657596 -T 123.175941
n -t 1.000000 -s 7 -x 429.000000 -y 327.000000 -U -1.658654 -V -2.499773 -T 127.211547
n -t 1.000000 -s 8 -x 451.000000 -y 264.000000 -U -2.022590 -V -2.215656 -T 108.771422
n -t 1.000000 -s 9 -x 397.000000 -y 369.000000 -U -1.857790 -V -0.740687 -T 164.711870
n -t 1.000000 -s 10 -x 49.000000 -y 490.000000 -U 1.620059 -V -2.524957 -T 68.516016
n -t 1.000000 -s 11 -x 326.000000 -y 277.000000 -U -4.080556 -V 2.889475 -T 45.336961
n -t 1.000000 -s 12 -x 393.000000 -y 264.000000 -U -0.881212 -V -0.472720 -T 389.236432
n -t 1.000000 -s 13 -x 384.000000 -y 359.000000 -U -1.914054 -V -2.310065 -T 15.151091
n -t 1.000000 -s 14 -x 101.000000 -y 229.000000 -U 1.952622 -V -0.432743 -T 94.744393
n -t 1.000000 -s 15 -x 141.000000 -y 78.000000 -U 0.883478 -V 0.468473 -T 392.765834
n -t 1.000000 -s 16 -x 450.000000 -y 500.000000 -U -3.474597 -V -1.981710 -T 75.692222
n -t 1.000000 -s 17 -x 192.000000 -y 351.000000 -U 3.604544 -V 1.734145 -T 80.731422
n -t 1.000000 -s 18 -x 150.000000 -y 57.000000 -U 0.569197 -V 1.917294 -T 33.380383
n -t 1.000000 -s 19 -x 481.000000 -y 8.000000 -U 0.194658 -V 4.996209 -T 15.411684
n -t 1.000000 -s 20 -x 240.000000 -y 48.000000 -U -0.382167 -V 0.924093 -T 319.231891
n -t 1.000000 -s 21 -x 276.000000 -y 42.000000 -U 0.349209 -V 0.937045 -T 171.816763
n -t 1.000000 -s 22 -x 72.000000 -y 470.000000 -U -0.045250 -V -0.998976 -T 287.294274
n -t 1.000000 -s 23 -x 33.000000 -y 202.000000 -U -0.800666 -V -3.919048 -T 23.730255
n -t 1.000000 -s 24 -x 150.000000 -y 95.000000 -U -1.462609 -V 3.723006 -T 67.687240
n -t 1.000000 -s 25 -x 44.000000 -y 58.000000 -U 4.712139 -V -1.672049 -T 32.893768
n -t 1.000000 -s 26 -x 40.000000 -y 236.000000 -U 2.945172 -V -0.570932 -T 143.624897
n -t 1.000000 -s 27 -x 242.000000 -y 148.000000 -U 0.998895 -V -0.047007 -T 255.282197
n -t 1.000000 -s 28 -x 96.000000 -y 19.000000 -U 0.615392 -V 3.952378 -T 115.373578
n -t 1.000000 -s 29 -x 468.000000 -y 295.000000 -U -0.533172 -V 1.927622 -T 48.764741
n -t 1.000000 -s 30 -x 275.000000 -y 470.000000 -U 0.174169 -V -3.996206 -T 103.348016
n -t 1.000000 -s 31 -x 492.000000 -y 15.000000 -U -3.295699 -V 2.266798 -T 124.404582
n -t 1.000000 -s 32 -x 8.000000 -y 264.000000 -U 4.749394 -V 1.563092 -T 83.168504
n -t 1.000000 -s 33 -x 435.000000 -y 474.000000 -U -1.752016 -V -0.964593 -T 50.798622
n -t 1.000000 -s 34 -x 398.000000 -y 404.000000 -U -0.867686 -V -0.497112 -T 331.917158
n -t 1.000000 -s 35 -x 472.000000 -y 256.000000 -U -0.960921 -V 0.276822 -T 314.281721
n -t 1.000000 -s 36 -x 248.000000 -y 482.000000 -U 0.643971 -V -2.930068 -T 155.286474
n -t 1.000000 -s 37 -x 408.000000 -y 132.000000 -U -3.602207 -V -1.738996 -T 8.050621
n -t 1.000000 -s 38 -x 438.000000 -y 413.000000 -U -0.872587 -V -0.488459 -T 210.867257
n -t 1.000000 -s 39 -x 469.000000 -y 432.000000 -U -2.828167 -V 1.000736 -T 45.966171
+ -t 1.012757599 -s 22 -d -1 -p tcp -e 40 -c 2 -a 0 -i 17 -k AGT 
- -t 1.012757599 -s 22 -d -1 -p tcp -e 40 -c 2 -a 0 -i 17 -k AGT
h -t 1.012757599 -s 22 -d -1 -p tcp -e 40 -c 2 -a 0 -i 17 -k AGT
+ -t 1.040953057 -s 24 -d -1 -p message -e 32 -c 2 -a 0 -i 18 -k RTR 
- -t 1.040953057 -s 24 -d -1 -p message -e 32 -c 2 -a 0 -i 18 -k RTR
h -t 1.040953057 -s 24 -d -1 -p message -e 32 -c 2 -a 0 -i 18 -k RTR
r -t 1.044363121 -s 15 -d -1 -p message -e 32 -c 2 -a 0 -i 18 -k RTR
r -t 1.044363184 -s 18 -d -1 -p message -e 32 -c 2 -a 0 -i 18 -k RTR
r -t 1.044363207 -s 4 -d -1 -p message -e 32 -c 2 -a 0 -i 18 -k RTR
r -t 1.044363368 -s 28 -d -1 -p message -e 32 -c 2 -a 0 -i 18 -k RTR
r -t 1.044363396 -s 20 -d -1 -p message -e 32 -c 2 -a 0 -i 18 -k RTR
r -t 1.044363411 -s 27 -d -1 -p message -e 32 -c 2 -a 0 -i 18 -k RTR
r -t 1.044363431 -s 25 -d -1 -p message -e 32 -c 2 -a 0 -i 18 -k RTR
r -t 1.044363513 -s 21 -d -1 -p message -e 32 -c 2 -a 0 -i 18 -k RTR
r -t 1.044363532 -s 14 -d -1 -p message -e 32 -c 2 -a 0 -i 18 -k RTR
r -t 1.044363550 -s 3 -d -1 -p message -e 32 -c 2 -a 0 -i 18 -k RTR
r -t 1.044363585 -s 23 -d -1 -p message -e 32 -c 2 -a 0 -i 18 -k RTR
r -t 1.044363652 -s 26 -d -1 -p message -e 32 -c 2 -a 0 -i 18 -k RTR
r -t 1.044363747 -s 0 -d -1 -p message -e 32 -c 2 -a 0 -i 18 -k RTR
r -t 1.044363792 -s 32 -d -1 -p message -e 32 -c 2 -a 0 -i 18 -k RTR
r -t 1.044363798 -s 6 -d -1 -p message -e 32 -c 2 -a 0 -i 18 -k RTR
r -t 1.044363813 -s 2 -d -1 -p message -e 32 -c 2 -a 0 -i 18 -k RTR
r -t 1.044363880 -s 5 -d -1 -p message -e 32 -c 2 -a 0 -i 18 -k RTR
+ -t 1.076710629 -s 21 -d -1 -p message -e 32 -c 2 -a 0 -i 19 -k RTR 
- -t 1.076710629 -s 21 -d -1 -p message -e 32 -c 2 -a 0 -i 19 -k RTR
h -t 1.076710629 -s 21 -d -1 -p message -e 32 -c 2 -a 0 -i 19 -k RTR
+ -t 1.079263760 -s 37 -d -1 -p tcp -e 40 -c 2 -a 0 -i 20 -k AGT 
- -t 1.079263760 -s 37 -d -1 -p tcp -e 40 -c 2 -a 0 -i 20 -k AGT
h -t 1.079263760 -s 37 -d -1 -p tcp -e 40 -c 2 -a 0 -i 20 -k AGT
r -t 1.081400751 -s 20 -d -1 -p message -e 32 -c 2 -a 0 -i 19 -k RTR
r -t 1.081400999 -s 27 -d -1 -p message -e 32 -c 2 -a 0 -i 19 -k RTR
r -t 1.081401052 -s 18 -d -1 -p message -e 32 -c 2 -a 0 -i 19 -k RTR
r -t 1.081401074 -s 5 -d -1 -p message -e 32 -c 2 -a 0 -i 19 -k RTR
r -t 1.081401085 -s 24 -d -1 -p message -e 32 -c 2 -a 0 -i 19 -k RTR
r -t 1.081401094 -s 15 -d -1 -p message -e 32 -c 2 -a 0 -i 19 -k RTR
r -t 1.081401103 -s 4 -d -1 -p message -e 32 -c 2 -a 0 -i 19 -k RTR