n -t * -s 0  -x 144 -y 302 -Z 0 -z 20  -v circle -c black
n -t * -s 1  -x 482 -y 385 -Z 0 -z 20  -v circle -c black
n -t * -s 2  -x 362 -y 176 -Z 0 -z 20  -v circle -c black
n -t * -s 3  -x 142 -y 243 -Z 0 -z 20  -v circle -c black
n -t * -s 4  -x 134 -y 53 -Z 0 -z 20  -v circle -c black
n -t * -s 5  -x 397 -y 99 -Z 0 -z 20  -v circle -c black
n -t * -s 6  -x 10 -y 268 -Z 0 -z 20  -v circle -c black
n -t * -s 7  -x 429 -y 327 -Z 0 -z 20  -v circle -c black
n -t * -s 8  -x 451 -y 264 -Z 0 -z 20  -v circle -c black
n -t * -s 9  -x 397 -y 369 -Z 0 -z 20  -v circle -c black
n -t * -s 10  -x 49 -y 490 -Z 0 -z 20  -v circle -c black
n -t * -s 11  -x 326 -y 277 -Z 0 -z 20  -v circle -c black
n -t * -s 12  -x 393 -y 264 -Z 0 -z 20  -v circle -c black
n -t * -s 13  -x 384 -y 359 -Z 0 -z 20  -v circle -c black
n -t * -s 14  -x 101 -y 229 -Z 0 -z 20  -v circle -c black
n -t * -s 15  -x 141 -y 78 -Z 0 -z 20  -v circle -c black
n -t * -s 16  -x 450 -y 500 -Z 0 -z 20  -v circle -c black
n -t * -s 17  -x 192 -y 351 -Z 0 -z 20  -v circle -c black
n -t * -s 18  -x 150 -y 57 -Z 0 -z 20  -v circle -c black
n -t * -s 19  -x 481 -y 8 -Z 0 -z 20  -v circle -c black
V -t * -v 1.0a5 -a 0
W -t * -x 500 -y 500
A -t * -n 1 -p 0 -o 0x7fffffff -c 30 -a 1
A -t * -h 1 -m 1073741823 -s 0
+ -t 0.108286928 -s 8 -d -1 -p message -e 32 -c 2 -a 0 -i 0 -k RTR 
- -t 0.108286928 -s 8 -d -1 -p message -e 32 -c 2 -a 0 -i 0 -k RTR
h -t 0.108286928 -s 8 -d -1 -p message -e 32 -c 2 -a 0 -i 0 -k RTR
r -t 0.112337122 -s 12 -d -1 -p message -e 32 -c 2 -a 0 -i 0 -k RTR
r -t 0.112337151 -s 7 -d -1 -p message -e 32 -c 2 -a 0 -i 0 -k RTR
r -t 0.112337316 -s 13 -d -1 -p message -e 32 -c 2 -a 0 -i 0 -k RTR
r -t 0.112337322 -s 9 -d -1 -p message -e 32 -c 2 -a 0 -i 0 -k RTR
r -t 0.112337345 -s 1 -d -1 -p message -e 32 -c 2 -a 0 -i 0 -k RTR
r -t 0.112337346 -s 2 -d -1 -p message -e 32 -c 2 -a 0 -i 0 -k RTR
r -t 0.112337347 -s 11 -d -1 -p message -e 32 -c 2 -a 0 -i 0 -k RTR
r -t 0.112337507 -s 5 -d -1 -p message -e 32 -c 2 -a 0 -i 0 -k RTR
r -t 0.112337715 -s 16 -d -1 -p message -e 32 -c 2 -a 0 -i 0 -k RTR
+ -t 0.184556115 -s 13 -d -1 -p message -e 32 -c 2 -a 0 -i 1 -k RTR 
- -t 0.184556115 -s 13 -d -1 -p message -e 32 -c 2 -a 0 -i 1 -k RTR
h -t 0.184556115 -s 13 -d -1 -p message -e 32 -c 2 -a 0 -i 1 -k RTR
r -t 0.187966170 -s 9 -d -1 -p message -e 32 -c 2 -a 0 -i 1 -k RTR
r -t 0.187966299 -s 7 -d -1 -p message -e 32 -c 2 -a 0 -i 1 -k RTR
r -t 0.187966433 -s 12 -d -1 -p message -e 32 -c 2 -a 0 -i 1 -k RTR
r -t 0.187966450 -s 11 -d -1 -p message -e 32 -c 2 -a 0 -i 1 -k RTR
r -t 0.187966453 -s 1 -d -1 -p message -e 32 -c 2 -a 0 -i 1 -k RTR
r -t 0.187966502 -s 8 -d -1 -p message -e 32 -c 2 -a 0 -i 1 -k RTR
r -t 0.187966634 -s 16 -d -1 -p message -e 32 -c 2 -a 0 -i 1 -k RTR
r -t 0.187966729 -s 2 -d -1 -p message -e 32 -c 2 -a 0 -i 1 -k RTR
r -t 0.187966755 -s 17 -d -1 -p message -e 32 -c 2 -a 0 -i 1 -k RTR
r -t 0.187966937 -s 0 -d -1 -p message -e 32 -c 2 -a 0 -i 1 -k RTR
+ -t 0.189349091 -s 6 -d -1 -p message -e 32 -c 2 -a 0 -i 2 -k RTR 
- -t 0.189349091 -s 6 -d -1 -p message -e 32 -c 2 -a 0 -i 2 -k RTR
h -t 0.189349091 -s 6 -d -1 -p message -e 32 -c 2 -a 0 -i 2 -k RTR
r -t 0.192439421 -s 14 -d -1 -p message -e 32 -c 2 -a 0 -i 2 -k RTR
r -t 0.192439539 -s 3 -d -1 -p message -e 32 -c 2 -a 0 -i 2 -k RTR
r -t 0.192439552 -s 0 -d -1 -p message -e 32 -c 2 -a 0 -i 2 -k RTR
r -t 0.192439758 -s 17 -d -1 -p message -e 32 -c 2 -a 0 -i 2 -k RTR
r -t 0.192439843 -s 10 -d -1 -p message -e 32 -c 2 -a 0 -i 2 -k RTR
r -t 0.192439861 -s 15 -d -1 -p message -e 32 -c 2 -a 0 -i 2 -k RTR
r -t 0.192439919 -s 4 -d -1 -p message -e 32 -c 2 -a 0 -i 2 -k RTR
+ -t 0.361191738 -s 4 -d -1 -p message -e 32 -c 2 -a 0 -i 3 -k RTR 
- -t 0.361191738 -s 4 -d -1 -p message -e 32 -c 2 -a 0 -i 3 -k RTR
h -t 0.361191738 -s 4 -d -1 -p message -e 32 -c 2 -a 0 -i 3 -k RTR
r -t 0.365241793 -s 18 -d -1 -p message -e 32 -c 2 -a 0 -i 3 -k RTR
r -t 0.365241825 -s 15 -d -1 -p message -e 32 -c 2 -a 0 -i 3 -k RTR
r -t 0.365242335 -s 14 -d -1 -p message -e 32 -c 2 -a 0 -i 3 -k RTR
r -t 0.365242372 -s 3 -d -1 -p message -e 32 -c 2 -a 0 -i 3 -k RTR
r -t 0.365242566 -s 6 -d -1 -p message -e 32 -c 2 -a 0 -i 3 -k RTR
r -t 0.365242569 -s 0 -d -1 -p message -e 32 -c 2 -a 0 -i 3 -k RTR
+ -t 0.416790201 -s 2 -d -1 -p message -e 32 -c 2 -a 0 -i 4 -k RTR 
- -t 0.416790201 -s 2 -d -1 -p message -e 32 -c 2 -a 0 -i 4 -k RTR
h -t 0.416790201 -s 2 -d -1 -p message -e 32 -c 2 -a 0 -i 4 -k RTR
r -t 0.420200483 -s 5 -d -1 -p message -e 32 -c 2 -a 0 -i 4 -k RTR
r -t 0.420200512 -s 12 -d -1 -p message -e 32 -c 2 -a 0 -i 4 -k RTR
r -t 0.420200559 -s 11 -d -1 -p message -e 32 -c 2 -a 0 -i 4 -k RTR
r -t 0.420200618 -s 8 -d -1 -p message -e 32 -c 2 -a 0 -i 4 -k RTR
r -t 0.420200752 -s 7 -d -1 -p message -e 32 -c 2 -a 0 -i 4 -k RTR
r -t 0.420200815 -s 13 -d -1 -p message -e 32 -c 2 -a 0 -i 4 -k RTR
r -t 0.420200855 -s 9 -d -1 -p message -e 32 -c 2 -a 0 -i 4 -k RTR
r -t 0.420200887 -s 19 -d -1 -p message -e 32 -c 2 -a 0 -i 4 -k RTR
r -t 0.420200968 -s 3 -d -1 -p message -e 32 -c 2 -a 0 -i 4 -k RTR
r -t 0.420201004 -s 1 -d -1 -p message -e 32 -c 2 -a 0 -i 4 -k RTR
r -t 0.420201007 -s 15 -d -1 -p message -e 32 -c 2 -a 0 -i 4 -k RTR
r -t 0.420201011 -s 18 -d -1 -p message -e 32 -c 2 -a 0 -i 4 -k RTR
r -t 0.420201014 -s 17 -d -1 -p message -e 32 -c 2 -a 0 -i 4 -k RTR
+ -t 0.842768025 -s 12 -d -1 -p message -e 32 -c 2 -a 0 -i 5 -k RTR 
- -t 0.842768025 -s 12 -d -1 -p message -e 32 -c 2 -a 0 -i 5 -k RTR
h -t 0.842768025 -s 12 -d -1 -p message -e 32 -c 2 -a 0 -i 5 -k RTR
r -t 0.845218218 -s 8 -d -1 -p message -e 32 -c 2 -a 0 -i 5 -k RTR
r -t 0.845218253 -s 11 -d -1 -p message -e 32 -c 2 -a 0 -i 5 -k RTR
r -t 0.845218267 -s 7 -d -1 -p message -e 32 -c 2 -a 0 -i 5 -k RTR
r -t 0.845218336 -s 2 -d -1 -p message -e 32 -c 2 -a 0 -i 5 -k RTR
r -t 0.845218343 -s 13 -d -1 -p message -e 32 -c 2 -a 0 -i 5 -k RTR
r -t 0.845218375 -s 9 -d -1 -p message -e 32 -c 2 -a 0 -i 5 -k RTR
r -t 0.845218526 -s 1 -d -1 -p message -e 32 -c 2 -a 0 -i 5 -k RTR
r -t 0.845218575 -s 5 -d -1 -p message -e 32 -c 2 -a 0 -i 5 -k RTR
r -t 0.845218755 -s 17 -d -1 -p message -e 32 -c 2 -a 0 -i 5 -k RTR
r -t 0.845218834 -s 16 -d -1 -p message -e 32 -c 2 -a 0 -i 5 -k RTR
+ -t 0.983476910 -s 7 -d -1 -p message -e 32 -c 2 -a 0 -i 6 -k RTR 
- -t 0.983476910 -s 7 -d -1 -p message -e 32 -c 2 -a 0 -i 6 -k RTR
h -t 0.983476910 -s 7 -d -1 -p message -e 32 -c 2 -a 0 -i 6 -k RTR
r -t 0.988167086 -s 9 -d -1 -p message -e 32 -c 2 -a 0 -i 6 -k RTR
r -t 0.988167094 -s 13 -d -1 -p message -e 32 -c 2 -a 0 -i 6 -k RTR
r -t 0.988167132 -s 8 -d -1 -p message -e 32 -c 2 -a 0 -i 6 -k RTR
r -t 0.988167152 -s 12 -d -1 -p message -e 32 -c 2 -a 0 -i 6 -k RTR
r -t 0.988167172 -s 1 -d -1 -p message -e 32 -c 2 -a 0 -i 6 -k RTR
r -t 0.988167291 -s 11 -d -1 -p message -e 32 -c 2 -a 0 -i 6 -k RTR
r -t 0.988167460 -s 2 -d -1 -p message -e 32 -c 2 -a 0 -i 6 -k RTR
r -t 0.988167491 -s 16 -d -1 -p message -e 32 -c 2 -a 0 -i 6 -k RTR
r -t 0.988167677 -s 5 -d -1 -p message -e 32 -c 2 -a 0 -i 6 -k RTR
r -t 0.988167704 -s 17 -d -1 -p message -e 32 -c 2 -a 0 -i 6 -k RTR
n -t 1.000000 -s 0 -x 144.000000 -y 302.000000 -U 3.992210 -V -0.249513 -T 76.148293
n -t 1.000000 -s 1 -x 482.000000 -y 385.000000 -U -0.822897 -V 0.568191 -T 102.078401
n -t 1.000000 -s 2 -x 362.000000 -y 176.000000 -U -1.998906 -V 0.066140 -T 136.074428
n -t 1.000000 -s 3 -x 142.000000 -y 243.000000 -U -0.846495 -V -1.812028 -T 75.605886
n -t 1.000000 -s 4 -x 134.000000 -y 53.000000 -U 0.863958 -V 0.503564 -T 202.556165
n -t 1.000000 -s 5 -x 397.000000 -y 99.000000 -U -1.998592 -V -0.075032 -T 146.603206
n -t 1.000000 -s 6 -x 10.000000 -y 268.000000 -U 3.945576 -V -0.657596 -T 123.175941
n -t 1.000000 -s 7 -x 429.000000 -y 327.000000 -U -1.658654 -V -2.499773 -T 127.211547
n -t 1.000000 -s 8 -x 451.000000 -y 264.000000 -U -2.022590 -V -2.215656 -T 108.771422
n -t 1.000000 -s 9 -x 397.000000 -y 369.000000 -U -1.857790 -V -0.740687 -T 164.711870
n -t 1.000000 -s 10 -x 49.000000 -y 490.000000 -U 1.620059 -V -2.524957 -T 68.516016
n -t 1.000000 -s 11 -x 326.000000 -y 277.000000 -U -4.080556 -V 2.889475 -T 45.336961
n -t 1.000000 -s 12 -x 393.000000 -y 264.000000 -U -0.881212 -V -0.472720 -T 389.236432
n -t 1.000000 -s 13 -x 384.000000 -y 359.000000 -U -1.914054 -V -2.310065 -T 15.151091
n -t 1.000000 -s 14 -x 101.000000 -y 229.000000 -U 1.952622 -V -0.432743 -T 94.744393
n -t 1.000000 -s 15 -x 141.000000 -y 78.000000 -U 0.883478 -V 0.468473 -T 392.765834
n -t 1.000000 -s 16 -x 450.000000 -y 500.000000 -U -3.474597 -V -1.981710 -T 75.692222
n -t 1.000000 -s 17 -x 192.000000 -y 351.000000 -U 3.604544 -V 1.734145 -T 80.731422
n -t 1.000000 -s 18 -x 150.000000 -y 57.000000 -U 0.569197 -V 1.917294 -T 33.380383
n -t 1.000000 -s 19 -x 481.000000 -y 8.000000 -U 0.194658 -V 4.996209 -T 15.411684
+ -t 1.073153639 -s 10 -d -1 -p message -e 32 -c 2 -a 0 -i 7 -k RTR 
- -t 1.073153639 -s 10 -d -1 -p message -e 32 -c 2 -a 0 -i 7 -k RTR
h -t 1.073153639 -s 10 -d -1 -p message -e 32 -c 2 -a 0 -i 7 -k RTR
r -t 1.075604304 -s 17 -d -1 -p message -e 32 -c 2 -a 0 -i 7 -k RTR
r -t 1.075604341 -s 0 -d -1 -p message -e 32 -c 2 -a 0 -i 7 -k RTR
r -t 1.075604390 -s 6 -d -1 -p message -e 32 -c 2 -a 0 -i 7 -k RTR
+ -t 1.106011134 -s 8 -d -1 -p tcp -e 40 -c 2 -a 0 -i 8 -k AGT 
- -t 1.106011134 -s 8 -d -1 -p tcp -e 40 -c 2 -a 0 -i 8 -k AGT
h -t 1.106011134 -s 8 -d -1 -p tcp -e 40 -c 2 -a 0 -i 8 -k AGT
+ -t 1.127838335 -s 1 -d -1 -p tcp -e 40 -c 2 -a 0 -i 9 -k AGT 
- -t 1.127838335 -s 1 -d -1 -p tcp -e 40 -c 2 -a 0 -i 9 -k AGT
h -t 1.127838335 -s 1 -d -1 -p tcp -e 40 -c 2 -a 0 -i 9 -k AGT
+ -t 1.173810097 -s 18 -d -1 -p message -e 32 -c 2 -a 0 -i 10 -k RTR 
- -t 1.173810097 -s 18 -d -1 -p message -e 32 -c 2 -a 0 -i 10 -k RTR
h -t 1.173810097 -s 18 -d -1 -p message -e 32 -c 2 -a 0 -i 10 -k RTR
r -t 1.176900152 -s 4 -d -1 -p message -e 32 -c 2 -a 0 -i 10 -k RTR
r -t 1.176900173 -s 15 -d -1 -p message -e 32 -c 2 -a 0 -i 10 -k RTR
r -t 1.176900692 -s 14 -d -1 -p message -e 32 -c 2 -a 0 -i 10 -k RTR
r -t 1.176900716 -s 3 -d -1 -p message -e 32 -c 2 -a 0 -i 10 -k RTR
r -t 1.176900906 -s 2 -d -1 -p message -e 32 -c 2 -a 0 -i 10 -k RTR
r -t 1.176900913 -s 0 -d -1 -p message -e 32 -c 2 -a 0 -i 10 -k RTR
+ -t 1.215880198 -s 4 -d -1 -p tcp -e 40 -c 2 -a 0 -i 11 -k AGT 
- -t 1.215880198 -s 4 -d -1 -p tcp -e 40 -c 2 -a 0 -i 11 -k AGT
h -t 1.215880198 -s 4 -d -1 -p tcp -e 40 -c 2 -a 0 -i 11 -k AGT
+ -t 1.236192861 -s 13 -d -1 -p tcp -e 40 -c 2 -a 0 -i 12 -k AGT 
- -t 1.236192861 -s 13 -d -1 -p tcp -e 40 -c 2 -a 0 -i 12 -k AGT
h -t 1.236192861 -s 13 -d -1 -p tcp -e 40 -c 2 -a 0 -i 12 -k AGT
+ -t 1.280725702 -s 11 -d -1 -p tcp -e 40 -c 2 -a 0 -i 13 -k AGT 
- -t 1.280725702 -s 11 -d -1 -p tcp -e 40 -c 2 -a 0 -i 13 -k AGT
h -t 1.280725702 -s 11 -d -1 -p tcp -e 40 -c 2 -a 0 -i 13 -k AGT
+ -t 1.392142830 -s 3 -d -1 -p message -e 32 -c 2 -a 0 -i 14 -k RTR 
- -t 1.392142830 -s 3 -d -1 -p message -e 32 -c 2 -a 0 -i 14 -k RTR
h -t 1.392142830 -s 3 -d -1 -p message -e 32 -c 2 -a 0 -i 14 -k RTR
r -t 1.395232971 -s 14 -d -1 -p message -e 32 -c 2 -a 0 -i 14 -k RTR
r -t 1.395233029 -s 0 -d -1 -p message -e 32 -c 2 -a 0 -i 14 -k RTR
r -t 1.395233234 -s 17 -d -1 -p message -e 32 -c 2 -a 0 -i 14 -k RTR
r -t 1.395233272 -s 6 -d -1 -p message -e 32 -c 2 -a 0 -i 14 -k RTR
r -t 1.395233377 -s 15 -d -1 -p message -e 32 -c 2 -a 0 -i 14 -k RTR
r -t 1.395233446 -s 18 -d -1 -p message -e 32 -c 2 -a 0 -i 14 -k RTR
r -t 1.395233451 -s 11 -d -1 -p message -e 32 -c 2 -a 0 -i 14 -k RTR
r -t 1.395233461 -s 4 -d -1 -p message -e 32 -c 2 -a 0 -i 14 -k RTR
r -t 1.395233595 -s 2 -d -1 -p message -e 32 -c 2 -a 0 -i 14 -k RTR
+ -t 1.459483157 -s 16 -d -1 -p message -e 32 -c 2 -a 0 -i 15 -k RTR 
- -t 1.459483157 -s 16 -d -1 -p message -e 32 -c 2 -a 0 -i 15 -k RTR
h -t 1.459483157 -s 16 -d -1 -p message -e 32 -c 2 -a 0 -i 15 -k RTR
r -t 1.464173552 -s 1 -d -1 -p message -e 32 -c 2 -a 0 -i 15 -k RTR
r -t 1.464173625 -s 9 -d -1 -p message -e 32 -c 2 -a 0 -i 15 -k RTR
r -t 1.464173675 -s 13 -d -1 -p message -e 32 -c 2 -a 0 -i 15 -k RTR
r -t 1.464173738 -s 7 -d -1 -p message -e 32 -c 2 -a 0 -i 15 -k RTR
r -t 1.464173944 -s 8 -d -1 -p message -e 32 -c 2 -a 0 -i 15 -k RTR
r -t 1.464173963 -s 12 -d -1 -p message -e 32 -c 2 -a 0 -i 15 -k RTR
+ -t 1.474516355 -s 11 -d -1 -p message -e 32 -c 2 -a 0 -i 16 -k RTR 
- -t 1.474516355 -s 11 -d -1 -p message -e 32 -c 2 -a 0 -i 16 -k RTR
h -t 1.474516355 -s 11 -d -1 -p message -e 32 -c 2 -a 0 -i 16 -k RTR
+ -t 1.476099489 -s 19 -d -1 -p message -e 32 -c 2 -a 0 -i 17 -k RTR 
- -t 1.476099489 -s 19 -d -1 -p message -e 32 -c 2 -a 0 -i 17 -k RTR
h -t 1.476099489 -s 19 -d -1 -p message -e 32 -c 2 -a 0 -i 17 -k RTR
r -t 1.478886589 -s 12 -d -1 -p message -e 32 -c 2 -a 0 -i 16 -k RTR
r -t 1.478886685 -s 13 -d -1 -p message -e 32 -c 2 -a 0 -i 16 -k RTR
r -t 1.478886718 -s 2 -d -1 -p message -e 32 -c 2 -a 0 -i 16 -k RTR
r -t 1.478886737 -s 7 -d -1 -p message -e 32 -c 2 -a 0 -i 16 -k RTR
r -t 1.478886740 -s 9 -d -1 -p message -e 32 -c 2 -a 0 -i 16 -k RTR
r -t 1.478886778 -s 8 -d -1 -p message -e 32 -c 2 -a 0 -i 16 -k RTR
r -t 1.478886854 -s 17 -d -1 -p message -e 32 -c 2 -a 0 -i 16 -k RTR
r -t 1.478886954 -s 0 -d -1 -p message -e 32 -c 2 -a 0 -i 16 -k RTR
r -t 1.478886975 -s 3 -d -1 -p message -e 32 -c 2 -a 0 -i 16 -k RTR
r -t 1.478886990 -s 1 -d -1 -p message -e 32 -c 2 -a 0 -i 16 -k RTR
r -t 1.478886999 -s 5 -d -1 -p message -e 32 -c 2 -a 0 -i 16 -k RTR
r -t 1.478887114 -s 14 -d -1 -p message -e 32 -c 2 -a 0 -i 16 -k RTR
r -t 1.483797899 -s 5 -d -1 -p message -e 32 -c 2 -a 0 -i 17 -k RTR
r -t 1.483798171 -s 2 -d -1 -p message -e 32 -c 2 -a 0 -i 17 -k RTR
+ -t 1.485553303 -s 1 -d -1 -p tcp -e 40 -c 2 -a 0 -i 18 -k AGT 
- -t 1.485553303 -s 1 -d -1 -p tcp -e 40 -c 2 -a 0 -i 18 -k AGT
h -t 1.485553303 -s 1 -d -1 -p tcp -e 40 -c 2 -a 0 -i 18 -k AGT
+ -t 1.546909413 -s 1 -d -1 -p message -e 32 -c 2 -a 0 -i 19 -k RTR 
- -t 1.546909413 -s 1 -d -1 -p message -e 32 -c 2 -a 0 -i 19 -k RTR
h -t 1.546909413 -s 1 -d -1 -p message -e 32 -c 2 -a 0 -i 19 -k RTR
r -t 1.551599680 -s 7 -d -1 -p message -e 32 -c 2 -a 0 -i 19 -k RTR
r -t 1.551599704 -s 9 -d -1 -p message -e 32 -c 2 -a 0 -i 19 -k RTR
r -t 1.551599754 -s 13 -d -1 -p message -e 32 -c 2 -a 0 -i 19 -k RTR
r -t 1.551599808 -s 16 -d -1 -p message -e 32 -c 2 -a 0 -i 19 -k RTR
r -t 1.551599835 -s 8 -d -1 -p message -e 32 -c 2 -a 0 -i 19 -k RTR
r -t 1.551599915 -s 12 -d -1 -p message -e 32 -c 2 -a 0 -i 19 -k RTR
r -t 1.551600048 -s 11 -d -1 -p message -e 32 -c 2 -a 0 -i 19 -k RTR
r -t 1.551600218 -s 2 -d -1 -p message -e 32 -c 2 -a 0 -i 19 -k RTR
+ -t 1.638518615 -s 14 -d -1 -p message -e 32 -c 2 -a 0 -i 20 -k RTR 
- -t 1.638518615 -s 14 -d -1 -p message -e 32 -c 2 -a 0 -i 20 -k RTR
h -t 1.638518615 -s 14 -d -1 -p message -e 32 -c 2 -a 0 -i 20 -k RTR
r -t 1.641608753 -s 3 -d -1 -p message -e 32 -c 2 -a 0 -i 20 -k RTR
r -t 1.641608900 -s 0 -d -1 -p message -e 32 -c 2 -a 0 -i 20 -k RTR
r -t 1.641608941 -s 6 -d -1 -p message -e 32 -c 2 -a 0 -i 20 -k RTR
r -t 1.641609128 -s 17 -d -1 -p message -e 32 -c 2 -a 0 -i 20 -k RTR
r -t 1.641609134 -s 15 -d -1 -p message -e 32 -c 2 -a 0 -i 20 -k RTR
r -t 1.641609206 -s 18 -d -1 -p message -e 32 -c 2 -a 0 -i 20 -k RTR
r -t 1.641609210 -s 4 -d -1 -p message -e 32 -c 2 -a 0 -i 20 -k RTR
r -t 1.641609371 -s 11 -d -1 -p message -e 32 -c 2 -a 0 -i 20 -k RTR
+ -t 1.652491191 -s 8 -d -1 -p tcp -e 40 -c 2 -a 0 -i 21 -k AGT 
- -t 1.652491191 -s 8 -d -1 -p tcp -e 40 -c 2 -a 0 -i 21 -k AGT
h -t 1.652491191 -s 8 -d -1 -p tcp -e 40 -c 2 -a 0 -i 21 -k AGT
+ -t 1.735006124 -s 9 -d -1 -p message -e 32 -c 2 -a 0 -i 22 -k RTR 
- -t 1.735006124 -s 9 -d -1 -p message -e 32 -c 2 -a 0 -i 22 -k RTR
h -t 1.735006124 -s 9 -d -1 -p message -e 32 -c 2 -a 0 -i 22 -k RTR
r -t 1.737456181 -s 13 -d -1 -p message -e 32 -c 2 -a 0 -i 22 -k RTR
+ -t 1.737456181 -s 13 -d 9 -p tcp -e 80 -c 2 -a 0 -i 12 -k RTR 
- -t 1.737456181 -s 13 -d 9 -p tcp -e 80 -c 2 -a 0 -i 12 -k RTR
h -t 1.737456181 -s 13 -d 9 -p tcp -e 80 -c 2 -a 0 -i 12 -k RTR
r -t 1.737456304 -s 7 -d -1 -p message -e 32 -c 2 -a 0 -i 22 -k RTR
r -t 1.737456415 -s 1 -d -1 -p message -e 32 -c 2 -a 0 -i 22 -k RTR
+ -t 1.737456415 -s 1 -d 9 -p tcp -e 80 -c 2 -a 0 -i 9 -k RTR 
- -t 1.737456415 -s 1 -d 9 -p tcp -e 80 -c 2 -a 0 -i 9 -k RTR
h -t 1.737456415 -s 1 -d 9 -p tcp -e 80 -c 2 -a 0 -i 9 -k RTR
+ -t 1.737456415 -s 1 -d 9 -p tcp -e 80 -c 2 -a 0 -i 18 -k RTR 
- -t 1.737456415 -s 1 -d 9 -p tcp -e 80 -c 2 -a 0 -i 18 -k RTR
h -t 1.737456415 -s 1 -d 9 -p tcp -e 80 -c 2 -a 0 -i 18 -k RTR
d -t 1.737456415 -s 1 -d 9 -p tcp -e 80 -c 2 -a 0 -i 9 -k IFQ
r -t 1.737456473 -s 12 -d -1 -p message -e 32 -c 2 -a 0 -i 22 -k RTR
r -t 1.737456508 -s 11 -d -1 -p message -e 32 -c 2 -a 0 -i 22 -k RTR
+ -t 1.737456508 -s 11 -d 9 -p tcp -e 80 -c 2 -a 0 -i 13 -k RTR 
- -t 1.737456508 -s 11 -d 9 -p tcp -e 80 -c 2 -a 0 -i 13 -k RTR
h -t 1.737456508 -s 11 -d 9 -p tcp -e 80 -c 2 -a 0 -i 13 -k RTR
r -t 1.737456521 -s 8 -d -1 -p message -e 32 -c 2 -a 0 -i 22 -k RTR
+ -t 1.737456521 -s 8 -d 9 -p tcp -e 80 -c 2 -a 0 -i 8 -k RTR 
- -t 1.737456521 -s 8 -d 9 -p tcp -e 80 -c 2 -a 0 -i 8 -k RTR
h -t 1.737456521 -s 8 -d 9 -p tcp -e 80 -c 2 -a 0 -i 8 -k RTR
+ -t 1.737456521 -s 8 -d 9 -p tcp -e 80 -c 2 -a 0 -i 21 -k RTR 
- -t 1.737456521 -s 8 -d 9 -p tcp -e 80 -c 2 -a 0 -i 21 -k RTR
h -t 1.737456521 -s 8 -d 9 -p tcp -e 80 -c 2 -a 0 -i 21 -k RTR
d -t 1.737456521 -s 8 -d 9 -p tcp -e 80 -c 2 -a 0 -i 8 -k IFQ
r -t 1.737456591 -s 16 -d -1 -p message -e 32 -c 2 -a 0 -i 22 -k RTR
r -t 1.737456776 -s 2 -d -1 -p message -e 32 -c 2 -a 0 -i 22 -k RTR
r -t 1.737456796 -s 17 -d -1 -p message -e 32 -c 2 -a 0 -i 22 -k RTR
+ -t 1.751435982 -s 17 -d -1 -p message -e 32 -c 2 -a 0 -i 23 -k RTR 
- -t 1.751435982 -s 17 -d -1 -p message -e 32 -c 2 -a 0 -i 23 -k RTR
h -t 1.751435982 -s 17 -d -1 -p message -e 32 -c 2 -a 0 -i 23 -k RTR
r -t 1.756728353 -s 9 -d 9 -p tcp -e 80 -c 2 -a 0 -i 12 -k AGT
+ -t 1.756728353 -s 9 -d -1 -p ack -e 40 -c 2 -a 0 -i 24 -k AGT 
- -t 1.756728353 -s 9 -d -1 -p ack -e 40 -c 2 -a 0 -i 24 -k AGT
h -t 1.756728353 -s 9 -d -1 -p ack -e 40 -c 2 -a 0 -i 24 -k AGT
+ -t 1.756728353 -s 9 -d 13 -p ack -e 60 -c 2 -a 0 -i 24 -k RTR 
- -t 1.756728353 -s 9 -d 13 -p ack -e 60 -c 2 -a 0 -i 24 -k RTR
h -t 1.756728353 -s 9 -d 13 -p ack -e 60 -c 2 -a 0 -i 24 -k RTR
r -t 1.763102213 -s 0 -d -1 -p message -e 32 -c 2 -a 0 -i 23 -k RTR
r -t 1.763102391 -s 3 -d -1 -p message -e 32 -c 2 -a 0 -i 23 -k RTR
r -t 1.763102473 -s 11 -d -1 -p message -e 32 -c 2 -a 0 -i 23 -k RTR
r -t 1.763102496 -s 14 -d -1 -p message -e 32 -c 2 -a 0 -i 23 -k RTR
r -t 1.763102608 -s 13 -d -1 -p message -e 32 -c 2 -a 0 -i 23 -k RTR
r -t 1.763102643 -s 10 -d -1 -p message -e 32 -c 2 -a 0 -i 23 -k RTR
r -t 1.763102650 -s 6 -d -1 -p message -e 32 -c 2 -a 0 -i 23 -k RTR
r -t 1.763102653 -s 9 -d -1 -p message -e 32 -c 2 -a 0 -i 23 -k RTR
r -t 1.763102704 -s 12 -d -1 -p message -e 32 -c 2 -a 0 -i 23 -k RTR
r -t 1.763102764 -s 7 -d -1 -p message -e 32 -c 2 -a 0 -i 23 -k RTR
r -t 1.763102788 -s 2 -d -1 -p message -e 32 -c 2 -a 0 -i 23 -k RTR
r -t 1.767028519 -s 9 -d 9 -p tcp -e 80 -c 2 -a 0 -i 18 -k AGT
+ -t 1.767028519 -s 9 -d -1 -p ack -e 40 -c 2 -a 0 -i 25 -k AGT 
- -t 1.767028519 -s 9 -d -1 -p ack -e 40 -c 2 -a 0 -i 25 -k AGT
h -t 1.767028519 -s 9 -d -1 -p ack -e 40 -c 2 -a 0 -i 25 -k AGT
+ -t 1.767028519 -s 9 -d 1 -p ack -e 60 -c 2 -a 0 -i 25 -k RTR 
- -t 1.767028519 -s 9 -d 1 -p ack -e 60 -c 2 -a 0 -i 25 -k RTR
h -t 1.767028519 -s 9 -d 1 -p ack -e 60 -c 2 -a 0 -i 25 -k RTR
r -t 1.774965159 -s 13 -d 13 -p ack -e 60 -c 2 -a 0 -i 24 -k AGT
+ -t 1.774965159 -s 13 -d -1 -p tcp -e 1040 -c 2 -a 0 -i 26 -k AGT 
- -t 1.774965159 -s 13 -d -1 -p tcp -e 1040 -c 2 -a 0 -i 26 -k AGT
h -t 1.774965159 -s 13 -d -1 -p tcp -e 1040 -c 2 -a 0 -i 26 -k AGT
+ -t 1.774965159 -s 13 -d 9 -p tcp -e 1060 -c 2 -a 0 -i 26 -k RTR 
- -t 1.774965159 -s 13 -d 9 -p tcp -e 1060 -c 2 -a 0 -i 26 -k RTR
h -t 1.774965159 -s 13 -d 9 -p tcp -e 1060 -c 2 -a 0 -i 26 -k RTR
+ -t 1.774965159 -s 13 -d -1 -p tcp -e 1040 -c 2 -a 0 -i 27 -k AGT 
- -t 1.774965159 -s 13 -d -1 -p tcp -e 1040 -c 2 -a 0 -i 27 -k AGT
h -t 1.774965159 -s 13 -d -1 -p tcp -e 1040 -c 2 -a 0 -i 27 -k AGT
+ -t 1.774965159 -s 13 -d 9 -p tcp -e 1060 -c 2 -a 0 -i 27 -k RTR 
- -t 1.774965159 -s 13 -d 9 -p tcp -e 1060 -c 2 -a 0 -i 27 -k RTR
h -t 1.774965159 -s 13 -d 9 -p tcp -e 1060 -c 2 -a 0 -i 27 -k RTR
r -t 1.780405508 -s 1 -d 1 -p ack -e 60 -c 2 -a 0 -i 25 -k AGT
+ -t 1.780405508 -s 1 -d -1 -p tcp -e 1040 -c 2 -a 0 -i 28 -k AGT 
- -t 1.780405508 -s 1 -d -1 -p tcp -e 1040 -c 2 -a 0 -i 28 -k AGT
h -t 1.780405508 -s 1 -d -1 -p tcp -e 1040 -c 2 -a 0 -i 28 -k AGT
+ -t 1.780405508 -s 1 -d 9 -p tcp -e 1060 -c 2 -a 0 -i 28 -k RTR 
- -t 1.780405508 -s 1 -d 9 -p tcp -e 1060 -c 2 -a 0 -i 28 -k RTR
h -t 1.780405508 -s 1 -d 9 -p tcp -e 1060 -c 2 -a 0 -i 28 -k RTR
+ -t 1.780405508 -s 1 -d -1 -p tcp -e 1040 -c 2 -a 0 -i 29 -k AGT 
- -t 1.780405508 -s 1 -d -1 -p tcp -e 1040 -c 2 -a 0 -i 29 -k AGT
h -t 1.780405508 -s 1 -d -1 -p tcp -e 1040 -c 2 -a 0 -i 29 -k AGT
+ -t 1.780405508 -s 1 -d 9 -p tcp -e 1060 -c 2 -a 0 -i 29 -k RTR 
- -t 1.780405508 -s 1 -d 9 -p tcp -e 1060 -c 2 -a 0 -i 29 -k RTR
h -t 1.780405508 -s 1 -d 9 -p tcp -e 1060 -c 2 -a 0 -i 29 -k RTR
r -t 1.782823217 -s 9 -d 9 -p tcp -e 36 -c 2 -a 0 -i 26 -k AGT
+ -t 1.782823217 -s 9 -d -1 -p ack -e 40 -c 2 -a 0 -i 30 -k AGT 
- -t 1.782823217 -s 9 -d -1 -p ack -e 40 -c 2 -a 0 -i 30 -k AGT
h -t 1.782823217 -s 9 -d -1 -p ack -e 40 -c 2 -a 0 -i 30 -k AGT
+ -t 1.782823217 -s 9 -d 13 -p ack -e 60 -c 2 -a 0 -i 30 -k RTR 
- -t 1.782823217 -s 9 -d 13 -p ack -e 60 -c 2 -a 0 -i 30 -k RTR
h -t 1.782823217 -s 9 -d 13 -p ack -e 60 -c 2 -a 0 -i 30 -k RTR
r -t 1.792615800 -s 9 -d 9 -p tcp -e 36 -c 2 -a 0 -i 28 -k AGT
+ -t 1.792615800 -s 9 -d -1 -p ack -e 40 -c 2 -a 0 -i 31 -k AGT 
- -t 1.792615800 -s 9 -d -1 -p ack -e 40 -c 2 -a 0 -i 31 -k AGT
h -t 1.792615800 -s 9 -d -1 -p ack -e 40 -c 2 -a 0 -i 31 -k AGT
+ -t 1.792615800 -s 9 -d 1 -p ack -e 60 -c 2 -a 0 -i 31 -k RTR 
- -t 1.792615800 -s 9 -d 1 -p ack -e 60 -c 2 -a 0 -i 31 -k RTR
h -t 1.792615800 -s 9 -d 1 -p ack -e 60 -c 2 -a 0 -i 31 -k RTR
+ -t 1.795708390 -s 3 -d -1 -p tcp -e 40 -c 2 -a 0 -i 32 -k AGT 
- -t 1.795708390 -s 3 -d -1 -p tcp -e 40 -c 2 -a 0 -i 32 -k AGT
h -t 1.795708390 -s 3 -d -1 -p tcp -e 40 -c 2 -a 0 -i 32 -k AGT
r -t 1.796455857 -s 13 -d 13 -p ack -e 60 -c 2 -a 0 -i 30 -k AGT
+ -t 1.796455857 -s 13 -d -1 -p tcp -e 1040 -c 2 -a 0 -i 33 -k AGT 
- -t 1.796455857 -s 13 -d -1 -p tcp -e 1040 -c 2 -a 0 -i 33 -k AGT
h -t 1.796455857 -s 13 -d -1 -p tcp -e 1040 -c 2 -a 0 -i 33 -k AGT
+ -t 1.796455857 -s 13 -d 9 -p tcp -e 1060 -c 2 -a 0 -i 33 -k RTR 
- -t 1.796455857 -s 13 -d 9 -p tcp -e 1060 -c 2 -a 0 -i 33 -k RTR
h -t 1.796455857 -s 13 -d 9 -p tcp -e 1060 -c 2 -a 0 -i 33 -k RTR
r -t 1.798887915 -s 9 -d 9 -p tcp -e 36 -c 2 -a 0 -i 27 -k AGT
+ -t 1.798887915 -s 9 -d -1 -p ack -e 40 -c 2 -a 0 -i 34 -k AGT 
- -t 1.798887915 -s 9 -d -1 -p ack -e 40 -c 2 -a 0 -i 34 -k AGT
h -t 1.798887915 -s 9 -d -1 -p ack -e 40 -c 2 -a 0 -i 34 -k AGT
+ -t 1.798887915 -s 9 -d 13 -p ack -e 60 -c 2 -a 0 -i 34 -k RTR 
- -t 1.798887915 -s 9 -d 13 -p ack -e 60 -c 2 -a 0 -i 34 -k RTR
h -t 1.798887915 -s 9 -d 13 -p ack -e 60 -c 2 -a 0 -i 34 -k RTR
r -t 1.802088206 -s 1 -d 1 -p ack -e 60 -c 2 -a 0 -i 31 -k AGT
r -t 1.805608555 -s 13 -d 13 -p ack -e 60 -c 2 -a 0 -i 34 -k AGT
r -t 1.810280613 -s 9 -d 9 -p tcp -e 36 -c 2 -a 0 -i 33 -k AGT
+ -t 1.810280613 -s 9 -d -1 -p ack -e 40 -c 2 -a 0 -i 36 -k AGT 
- -t 1.810280613 -s 9 -d -1 -p ack -e 40 -c 2 -a 0 -i 36 -k AGT
h -t 1.810280613 -s 9 -d -1 -p ack -e 40 -c 2 -a 0 -i 36 -k AGT
+ -t 1.810280613 -s 9 -d 13 -p ack -e 60 -c 2 -a 0 -i 36 -k RTR 
- -t 1.810280613 -s 9 -d 13 -p ack -e 60 -c 2 -a 0 -i 36 -k RTR
h -t 1.810280613 -s 9 -d 13 -p ack -e 60 -c 2 -a 0 -i 36 -k RTR
+ -t 1.811501830 -s 15 -d -1 -p message -e 32 -c 2 -a 0 -i 35 -k RTR 
- -t 1.811501830 -s 15 -d -1 -p message -e 32 -c 2 -a 0 -i 35 -k RTR
h -t 1.811501830 -s 15 -d -1 -p message -e 32 -c 2 -a 0 -i 35 -k RTR
r -t 1.814170670 -s 13 -d 13 -p ack -e 60 -c 2 -a 0 -i 36 -k AGT
r -t 1.816191902 -s 18 -d -1 -p message -e 32 -c 2 -a 0 -i 35 -k RTR
r -t 1.816191917 -s 4 -d -1 -p message -e 32 -c 2 -a 0 -i 35 -k RTR
r -t 1.816192348 -s 14 -d -1 -p message -e 32 -c 2 -a 0 -i 35 -k RTR
r -t 1.816192374 -s 3 -d -1 -p message -e 32 -c 2 -a 0 -i 35 -k RTR
r -t 1.816192592 -s 6 -d -1 -p message -e 32 -c 2 -a 0 -i 35 -k RTR
r -t 1.818408010 -s 9 -d 9 -p tcp -e 80 -c 2 -a 0 -i 21 -k AGT
+ -t 1.818408010 -s 9 -d -1 -p ack -e 40 -c 2 -a 0 -i 37 -k AGT 
- -t 1.818408010 -s 9 -d -1 -p ack -e 40 -c 2 -a 0 -i 37 -k AGT
h -t 1.818408010 -s 9 -d -1 -p ack -e 40 -c 2 -a 0 -i 37 -k AGT
+ -t 1.818408010 -s 9 -d 8 -p ack -e 60 -c 2 -a 0 -i 37 -k RTR 
- -t 1.818408010 -s 9 -d 8 -p ack -e 60 -c 2 -a 0 -i 37 -k RTR
h -t 1.818408010 -s 9 -d 8 -p ack -e 60 -c 2 -a 0 -i 37 -k RTR
+ -t 1.821175097 -s 2 -d -1 -p tcp -e 40 -c 2 -a 0 -i 38 -k AGT 
- -t 1.821175097 -s 2 -d -1 -p tcp -e 40 -c 2 -a 0 -i 38 -k AGT
h -t 1.821175097 -s 2 -d -1 -p tcp -e 40 -c 2 -a 0 -i 38 -k AGT
+ -t 1.821175097 -s 2 -d 9 -p tcp -e 60 -c 2 -a 0 -i 38 -k RTR 
- -t 1.821175097 -s 2 -d 9 -p tcp -e 60 -c 2 -a 0 -i 38 -k RTR
h -t 1.821175097 -s 2 -d 9 -p tcp -e 60 -c 2 -a 0 -i 38 -k RTR
r -t 1.825576498 -s 9 -d 9 -p tcp -e 36 -c 2 -a 0 -i 29 -k AGT
+ -t 1.825576498 -s 9 -d -1 -p ack -e 40 -c 2 -a 0 -i 39 -k AGT 
- -t 1.825576498 -s 9 -d -1 -p ack -e 40 -c 2 -a 0 -i 39 -k AGT
h -t 1.825576498 -s 9 -d -1 -p ack -e 40 -c 2 -a 0 -i 39 -k AGT
+ -t 1.825576498 -s 9 -d 1 -p ack -e 60 -c 2 -a 0 -i 39 -k RTR 
- -t 1.825576498 -s 9 -d 1 -p ack -e 60 -c 2 -a 0 -i 39 -k RTR
h -t 1.825576498 -s 9 -d 1 -p ack -e 60 -c 2 -a 0 -i 39 -k RTR
+ -t 1.827313802 -s 7 -d -1 -p tcp -e 40 -c 2 -a 0 -i 40 -k AGT 
- -t 1.827313802 -s 7 -d -1 -p tcp -e 40 -c 2 -a 0 -i 40 -k AGT
h -t 1.827313802 -s 7 -d -1 -p tcp -e 40 -c 2 -a 0 -i 40 -k AGT
+ -t 1.827313802 -s 7 -d 9 -p tcp -e 60 -c 2 -a 0 -i 40 -k RTR 
- -t 1.827313802 -s 7 -d 9 -p tcp -e 60 -c 2 -a 0 -i 40 -k RTR
h -t 1.827313802 -s 7 -d 9 -p tcp -e 60 -c 2 -a 0 -i 40 -k RTR
r -t 1.829096895 -s 8 -d 8 -p ack -e 60 -c 2 -a 0 -i 37 -k AGT
+ -t 1.829096895 -s 8 -d -1 -p tcp -e 1040 -c 2 -a 0 -i 41 -k AGT 
- -t 1.829096895 -s 8 -d -1 -p tcp -e 1040 -c 2 -a 0 -i 41 -k AGT
h -t 1.829096895 -s 8 -d -1 -p tcp -e 1040 -c 2 -a 0 -i 41 -k AGT
+ -t 1.829096895 -s 8 -d 9 -p tcp -e 1060 -c 2 -a 0 -i 41 -k RTR 
- -t 1.829096895 -s 8 -d 9 -p tcp -e 1060 -c 2 -a 0 -i 41 -k RTR
h -t 1.829096895 -s 8 -d 9 -p tcp -e 1060 -c 2 -a 0 -i 41 -k RTR
r -t 1.833499292 -s 9 -d 9 -p tcp -e 36 -c 2 -a 0 -i 41 -k AGT
+ -t 1.833499292 -s 9 -d -1 -p ack -e 40 -c 2 -a 0 -i 42 -k AGT 
- -t 1.833499292 -s 9 -d -1 -p ack -e 40 -c 2 -a 0 -i 42 -k AGT
h -t 1.833499292 -s 9 -d -1 -p ack -e 40 -c 2 -a 0 -i 42 -k AGT
+ -t 1.833499292 -s 9 -d 8 -p ack -e 60 -c 2 -a 0 -i 42 -k RTR 
- -t 1.833499292 -s 9 -d 8 -p ack -e 60 -c 2 -a 0 -i 42 -k RTR
h -t 1.833499292 -s 9 -d 8 -p ack -e 60 -c 2 -a 0 -i 42 -k RTR
+ -t 1.843029015 -s 4 -d -1 -p tcp -e 40 -c 2 -a 0 -i 43 -k AGT 
- -t 1.843029015 -s 4 -d -1 -p tcp -e 40 -c 2 -a 0 -i 43 -k AGT
h -t 1.843029015 -s 4 -d -1 -p tcp -e 40 -c 2 -a 0 -i 43 -k AGT
r -t 1.853916378 -s 1 -d 1 -p ack -e 60 -c 2 -a 0 -i 39 -k AGT
r -t 1.859357067 -s 8 -d 8 -p ack -e 60 -c 2 -a 0 -i 42 -k AGT
+ -t 1.860542951 -s 14 -d -1 -p tcp -e 40 -c 2 -a 0 -i 44 -k AGT 
- -t 1.860542951 -s 14 -d -1 -p tcp -e 40 -c 2 -a 0 -i 44 -k AGT
h -t 1.860542951 -s 14 -d -1 -p tcp -e 40 -c 2 -a 0 -i 44 -k AGT
r -t 1.867299767 -s 9 -d 9 -p tcp -e 60 -c 2 -a 0 -i 38 -k AGT
+ -t 1.867299767 -s 9 -d -1 -p ack -e 40 -c 2 -a 0 -i 45 -k AGT 
- -t 1.867299767 -s 9 -d -1 -p ack -e 40 -c 2 -a 0 -i 45 -k AGT
h -t 1.867299767 -s 9 -d -1 -p ack -e 40 -c 2 -a 0 -i 45 -k AGT
+ -t 1.867299767 -s 9 -d 2 -p ack -e 60 -c 2 -a 0 -i 45 -k RTR 
- -t 1.867299767 -s 9 -d 2 -p ack -e 60 -c 2 -a 0 -i 45 -k RTR
h -t 1.867299767 -s 9 -d 2 -p ack -e 60 -c 2 -a 0 -i 45 -k RTR
r -t 1.872150419 -s 2 -d 2 -p ack -e 60 -c 2 -a 0 -i 45 -k AGT
+ -t 1.872150419 -s 2 -d -1 -p tcp -e 1040 -c 2 -a 0 -i 46 -k AGT 
- -t 1.872150419 -s 2 -d -1 -p tcp -e 1040 -c 2 -a 0 -i 46 -k AGT
h -t 1.872150419 -s 2 -d -1 -p tcp -e 1040 -c 2 -a 0 -i 46 -k AGT
+ -t 1.872150419 -s 2 -d 9 -p tcp -e 1060 -c 2 -a 0 -i 46 -k RTR 
- -t 1.872150419 -s 2 -d 9 -p tcp -e 1060 -c 2 -a 0 -i 46 -k RTR
h -t 1.872150419 -s 2 -d 9 -p tcp -e 1060 -c 2 -a 0 -i 46 -k RTR
+ -t 1.872150419 -s 2 -d -1 -p tcp -e 1040 -c 2 -a 0 -i 47 -k AGT 
- -t 1.872150419 -s 2 -d -1 -p tcp -e 1040 -c 2 -a 0 -i 47 -k AGT
h -t 1.872150419 -s 2 -d -1 -p tcp -e 1040 -c 2 -a 0 -i 47 -k AGT
+ -t 1.872150419 -s 2 -d 9 -p tcp -e 1060 -c 2 -a 0 -i 47 -k RTR 
- -t 1.872150419 -s 2 -d 9 -p tcp -e 1060 -c 2 -a 0 -i 47 -k RTR
h -t 1.872150419 -s 2 -d 9 -p tcp -e 1060 -c 2 -a 0 -i 47 -k RTR
r -t 1.876233071 -s 9 -d 9 -p tcp -e 36 -c 2 -a 0 -i 46 -k AGT
+ -t 1.876233071 -s 9 -d -1 -p ack -e 40 -c 2 -a 0 -i 48 -k AGT 
- -t 1.876233071 -s 9 -d -1 -p ack -e 40 -c 2 -a 0 -i 48 -k AGT
h -t 1.876233071 -s 9 -d -1 -p ack -e 40 -c 2 -a 0 -i 48 -k AGT
+ -t 1.876233071 -s 9 -d 2 -p ack -e 60 -c 2 -a 0 -i 48 -k RTR 
- -t 1.876233071 -s 9 -d 2 -p ack -e 60 -c 2 -a 0 -i 48 -k RTR
h -t 1.876233071 -s 9 -d 2 -p ack -e 60 -c 2 -a 0 -i 48 -k RTR
r -t 1.884618374 -s 9 -d 9 -p tcp -e 36 -c 2 -a 0 -i 47 -k AGT
+ -t 1.884618374 -s 9 -d -1 -p ack -e 40 -c 2 -a 0 -i 49 -k AGT 
- -t 1.884618374 -s 9 -d -1 -p ack -e 40 -c 2 -a 0 -i 49 -k AGT
h -t 1.884618374 -s 9 -d -1 -p ack -e 40 -c 2 -a 0 -i 49 -k AGT
+ -t 1.884618374 -s 9 -d 2 -p ack -e 60 -c 2 -a 0 -i 49 -k RTR 
- -t 1.884618374 -s 9 -d 2 -p ack -e 60 -c 2 -a 0 -i 49 -k RTR
h -t 1.884618374 -s 9 -d 2 -p ack -e 60 -c 2 -a 0 -i 49 -k RTR
r -t 1.889419025 -s 2 -d 2 -p ack -e 60 -c 2 -a 0 -i 48 -k AGT
r -t 1.893580328 -s 2 -d 2 -p ack -e 60 -c 2 -a 0 -i 49 -k AGT
+ -t 1.897765673 -s 5 -d -1 -p tcp -e 40 -c 2 -a 0 -i 51 -k AGT 
- -t 1.897765673 -s 5 -d -1 -p tcp -e 40 -c 2 -a 0 -i 51 -k AGT
h -t 1.897765673 -s 5 -d -1 -p tcp -e 40 -c 2 -a 0 -i 51 -k AGT