s 0.036328457 _11_ RTR  --- 0 message 32 [0 0 0 0] ------- [11:255 -1:255 32 0] 
r 0.038779028 _12_ RTR  --- 0 message 32 [0 ffffffff b 800] ------- [11:255 -1:255 32 0] 
s 0.073282045 _4_ RTR  --- 1 message 32 [0 0 0 0] ------- [4:255 -1:255 32 0] 
r 0.076692180 _18_ RTR  --- 1 message 32 [0 ffffffff 4 800] ------- [4:255 -1:255 32 0] 
r 0.076692264 _15_ RTR  --- 1 message 32 [0 ffffffff 4 800] ------- [4:255 -1:255 32 0] 
r 0.076692420 _24_ RTR  --- 1 message 32 [0 ffffffff 4 800] ------- [4:255 -1:255 32 0] 
r 0.076692470 _28_ RTR  --- 1 message 32 [0 ffffffff 4 800] ------- [4:255 -1:255 32 0] 
r 0.076692793 _25_ RTR  --- 1 message 32 [0 ffffffff 4 800] ------- [4:255 -1:255 32 0] 
s 0.088584275 _31_ RTR  --- 2 message 32 [0 0 0 0] ------- [31:255 -1:255 32 0] 
r 0.092634383 _19_ RTR  --- 2 message 32 [0 ffffffff 1f 800] ------- [31:255 -1:255 32 0] 
s 0.126846076 _36_ RTR  --- 3 message 32 [0 0 0 0] ------- [36:255 -1:255 32 0] 
s 0.129642904 _28_ RTR  --- 4 message 32 [0 0 0 0] ------- [28:255 -1:255 32 0] 
r 0.130896324 _30_ RTR  --- 3 message 32 [0 ffffffff 24 800] ------- [36:255 -1:255 32 0] 
r 0.133373329 _4_ RTR  --- 4 message 32 [0 ffffffff 1c 800] ------- [28:255 -1:255 32 0] 
r 0.133373440 _25_ RTR  --- 4 message 32 [0 ffffffff 1c 800] ------- [28:255 -1:255 32 0] 
r 0.133373454 _18_ RTR  --- 4 message 32 [0 ffffffff 1c 800] ------- [28:255 -1:255 32 0] 
r 0.133373527 _15_ RTR  --- 4 message 32 [0 ffffffff 1c 800] ------- [28:255 -1:255 32 0] 
r 0.133373681 _24_ RTR  --- 4 message 32 [0 ffffffff 1c 800] ------- [28:255 -1:255 32 0] 
s 0.247164037 _15_ RTR  --- 5 message 32 [0 0 0 0] ------- [15:255 -1:255 32 0] 
r 0.250574193 _24_ RTR  --- 5 message 32 [0 ffffffff f 800] ------- [15:255 -1:255 32 0] 
r 0.250574222 _18_ RTR  --- 5 message 32 [0 ffffffff f 800] ------- [15:255 -1:255 32 0] 
r 0.250574256 _4_ RTR  --- 5 message 32 [0 ffffffff f 800] ------- [15:255 -1:255 32 0] 
r 0.250574659 _28_ RTR  --- 5 message 32 [0 ffffffff f 800] ------- [15:255 -1:255 32 0] 
r 0.250574865 _25_ RTR  --- 5 message 32 [0 ffffffff f 800] ------- [15:255 -1:255 32 0] 
s 0.321822596 _26_ RTR  --- 6 message 32 [0 0 0 0] ------- [26:255 -1:255 32 0] 
r 0.324272883 _23_ RTR  --- 6 message 32 [0 ffffffff 1a 800] ------- [26:255 -1:255 32 0] 
r 0.324272951 _32_ RTR  --- 6 message 32 [0 ffffffff 1a 800] ------- [26:255 -1:255 32 0] 
r 0.324272964 _6_ RTR  --- 6 message 32 [0 ffffffff 1a 800] ------- [26:255 -1:255 32 0] 
r 0.324273107 _14_ RTR  --- 6 message 32 [0 ffffffff 1a 800] ------- [26:255 -1:255 32 0] 
s 0.349191800 _3_ RTR  --- 7 message 32 [0 0 0 0] ------- [3:255 -1:255 32 0] 
r 0.352922161 _14_ RTR  --- 7 message 32 [0 ffffffff 3 800] ------- [3:255 -1:255 32 0] 
r 0.352922291 _0_ RTR  --- 7 message 32 [0 ffffffff 3 800] ------- [3:255 -1:255 32 0] 
s 0.356017125 _29_ RTR  --- 8 message 32 [0 0 0 0] ------- [29:255 -1:255 32 0] 
r 0.359427416 _8_ RTR  --- 8 message 32 [0 ffffffff 1d 800] ------- [29:255 -1:255 32 0] 
r 0.359427447 _35_ RTR  --- 8 message 32 [0 ffffffff 1d 800] ------- [29:255 -1:255 32 0] 
r 0.359427551 _7_ RTR  --- 8 message 32 [0 ffffffff 1d 800] ------- [29:255 -1:255 32 0] 
r 0.359427800 _12_ RTR  --- 8 message 32 [0 ffffffff 1d 800] ------- [29:255 -1:255 32 0] 
r 0.359427884 _1_ RTR  --- 8 message 32 [0 ffffffff 1d 800] ------- [29:255 -1:255 32 0] 
s 0.421784672 _10_ RTR  --- 9 message 32 [0 0 0 0] ------- [10:255 -1:255 32 0] 
r 0.425514927 _22_ RTR  --- 9 message 32 [0 ffffffff a 800] ------- [10:255 -1:255 32 0] 
s 0.429968552 _17_ RTR  --- 10 message 32 [0 0 0 0] ------- [17:255 -1:255 32 0] 
r 0.434019122 _0_ RTR  --- 10 message 32 [0 ffffffff 11 800] ------- [17:255 -1:255 32 0] 
s 0.454435365 _34_ RTR  --- 11 message 32 [0 0 0 0] ------- [34:255 -1:255 32 0] 
r 0.458165659 _9_ RTR  --- 11 message 32 [0 ffffffff 22 800] ------- [34:255 -1:255 32 0] 
r 0.458165707 _38_ RTR  --- 11 message 32 [0 ffffffff 22 800] ------- [34:255 -1:255 32 0] 
r 0.458165761 _13_ RTR  --- 11 message 32 [0 ffffffff 22 800] ------- [34:255 -1:255 32 0] 
r 0.458165997 _39_ RTR  --- 11 message 32 [0 ffffffff 22 800] ------- [34:255 -1:255 32 0] 
r 0.458166027 _33_ RTR  --- 11 message 32 [0 ffffffff 22 800] ------- [34:255 -1:255 32 0] 
r 0.458166050 _7_ RTR  --- 11 message 32 [0 ffffffff 22 800] ------- [34:255 -1:255 32 0] 
r 0.458166083 _1_ RTR  --- 11 message 32 [0 ffffffff 22 800] ------- [34:255 -1:255 32 0] 
s 0.474672686 _27_ RTR  --- 12 message 32 [0 0 0 0] ------- [27:255 -1:255 32 0] 
s 0.671962519 _14_ RTR  --- 13 message 32 [0 0 0 0] ------- [14:255 -1:255 32 0] 
r 0.676652880 _3_ RTR  --- 13 message 32 [0 ffffffff e 800] ------- [14:255 -1:255 32 0] 
r 0.676653030 _26_ RTR  --- 13 message 32 [0 ffffffff e 800] ------- [14:255 -1:255 32 0] 
r 0.676653127 _23_ RTR  --- 13 message 32 [0 ffffffff e 800] ------- [14:255 -1:255 32 0] 
r 0.676653226 _0_ RTR  --- 13 message 32 [0 ffffffff e 800] ------- [14:255 -1:255 32 0] 
r 0.676653346 _32_ RTR  --- 13 message 32 [0 ffffffff e 800] ------- [14:255 -1:255 32 0] 
r 0.676653347 _6_ RTR  --- 13 message 32 [0 ffffffff e 800] ------- [14:255 -1:255 32 0] 
s 0.684226311 _37_ RTR  --- 14 message 32 [0 0 0 0] ------- [37:255 -1:255 32 0] 
r 0.688276593 _5_ RTR  --- 14 message 32 [0 ffffffff 25 800] ------- [37:255 -1:255 32 0] 
r 0.688276839 _2_ RTR  --- 14 message 32 [0 ffffffff 25 800] ------- [37:255 -1:255 32 0] 
s 0.820392893 _20_ RTR  --- 15 message 32 [0 0 0 0] ------- [20:255 -1:255 32 0] 
r 0.824123200 _21_ RTR  --- 15 message 32 [0 ffffffff 14 800] ------- [20:255 -1:255 32 0] 
r 0.824123651 _18_ RTR  --- 15 message 32 [0 ffffffff 14 800] ------- [20:255 -1:255 32 0] 
s 0.850035071 _19_ RTR  --- 16 message 32 [0 0 0 0] ------- [19:255 -1:255 32 0] 
r 0.854725179 _31_ RTR  --- 16 message 32 [0 ffffffff 13 800] ------- [19:255 -1:255 32 0] 
s 0.869383415 _18_ RTR  --- 17 message 32 [0 0 0 0] ------- [18:255 -1:255 32 0] 
r 0.872793550 _4_ RTR  --- 17 message 32 [0 ffffffff 12 800] ------- [18:255 -1:255 32 0] 
r 0.872793601 _15_ RTR  --- 17 message 32 [0 ffffffff 12 800] ------- [18:255 -1:255 32 0] 
r 0.872793729 _24_ RTR  --- 17 message 32 [0 ffffffff 12 800] ------- [18:255 -1:255 32 0] 
r 0.872793965 _28_ RTR  --- 17 message 32 [0 ffffffff 12 800] ------- [18:255 -1:255 32 0] 
r 0.872794173 _20_ RTR  --- 17 message 32 [0 ffffffff 12 800] ------- [18:255 -1:255 32 0] 
s 0.875205073 _13_ RTR  --- 18 message 32 [0 0 0 0] ------- [13:255 -1:255 32 0] 
r 0.877975211 _9_ RTR  --- 18 message 32 [0 ffffffff d 800] ------- [13:255 -1:255 32 0] 
r 0.877975468 _34_ RTR  --- 18 message 32 [0 ffffffff d 800] ------- [13:255 -1:255 32 0] 
r 0.877975528 _7_ RTR  --- 18 message 32 [0 ffffffff d 800] ------- [13:255 -1:255 32 0] 
r 0.877975714 _38_ RTR  --- 18 message 32 [0 ffffffff d 800] ------- [13:255 -1:255 32 0] 
r 0.877975870 _12_ RTR  --- 18 message 32 [0 ffffffff d 800] ------- [13:255 -1:255 32 0] 
s 0.884601285 _12_ RTR  --- 19 message 32 [0 0 0 0] ------- [12:255 -1:255 32 0] 
r 0.888971765 _8_ RTR  --- 19 message 32 [0 ffffffff c 800] ------- [12:255 -1:255 32 0] 
r 0.888971855 _11_ RTR  --- 19 message 32 [0 ffffffff c 800] ------- [12:255 -1:255 32 0] 
r 0.888971895 _7_ RTR  --- 19 message 32 [0 ffffffff c 800] ------- [12:255 -1:255 32 0] 
r 0.888971944 _35_ RTR  --- 19 message 32 [0 ffffffff c 800] ------- [12:255 -1:255 32 0] 
r 0.888971960 _29_ RTR  --- 19 message 32 [0 ffffffff c 800] ------- [12:255 -1:255 32 0] 
r 0.888972059 _2_ RTR  --- 19 message 32 [0 ffffffff c 800] ------- [12:255 -1:255 32 0] 
r 0.888972082 _13_ RTR  --- 19 message 32 [0 ffffffff c 800] ------- [12:255 -1:255 32 0] 
s 0.902722248 _9_ RTR  --- 20 message 32 [0 0 0 0] ------- [9:255 -1:255 32 0] 
r 0.906452386 _13_ RTR  --- 20 message 32 [0 ffffffff 9 800] ------- [9:255 -1:255 32 0] 
r 0.906452542 _34_ RTR  --- 20 message 32 [0 ffffffff 9 800] ------- [9:255 -1:255 32 0] 
r 0.906452681 _7_ RTR  --- 20 message 32 [0 ffffffff 9 800] ------- [9:255 -1:255 32 0] 
r 0.906452753 _38_ RTR  --- 20 message 32 [0 ffffffff 9 800] ------- [9:255 -1:255 32 0] 
r 0.906452971 _1_ RTR  --- 20 message 32 [0 ffffffff 9 800] ------- [9:255 -1:255 32 0] 
r 0.906453044 _39_ RTR  --- 20 message 32 [0 ffffffff 9 800] ------- [9:255 -1:255 32 0] 
s 0.974422618 _22_ RTR  --- 21 message 32 [0 0 0 0] ------- [22:255 -1:255 32 0] 
r 0.976872873 _10_ RTR  --- 21 message 32 [0 ffffffff 16 800] ------- [22:255 -1:255 32 0] 
M 1.00000 0 (359.00, 754.00, 0.00), (1119.00, 706.00), 4.00
M 1.00000 1 (1205.00, 961.00, 0.00), (995.00, 1108.00), 1.00
M 1.00000 2 (905.00, 439.00, 0.00), (223.00, 461.00), 2.00
M 1.00000 3 (354.00, 607.00, 0.00), (194.00, 264.00), 2.00
M 1.00000 4 (334.00, 132.00, 0.00), (772.00, 386.00), 1.00
M 1.00000 5 (993.00, 247.00, 0.00), (260.00, 219.00), 2.00
M 1.00000 6 (24.00, 669.00, 0.00), (1238.00, 467.00), 4.00
M 1.00000 7 (1071.00, 818.00, 0.00), (545.00, 21.00), 3.00
M 1.00000 8 (1126.00, 660.00, 0.00), (577.00, 58.00), 3.00
M 1.00000 9 (992.00, 921.00, 0.00), (226.00, 618.00), 2.00
M 1.00000 10 (122.00, 1225.00, 0.00), (399.00, 793.00), 3.00
M 1.00000 11 (814.00, 691.00, 0.00), (351.00, 1020.00), 5.00
M 1.00000 12 (982.00, 658.00, 0.00), (124.00, 199.00), 1.00
M 1.00000 13 (959.00, 896.00, 0.00), (887.00, 808.00), 3.00
M 1.00000 14 (252.00, 571.00, 0.00), (714.00, 468.00), 2.00
M 1.00000 15 (353.00, 195.00, 0.00), (1220.00, 654.00), 1.00
M 1.00000 16 (1123.00, 1250.00, 0.00), (466.00, 875.00), 4.00
M 1.00000 17 (478.00, 877.00, 0.00), (1208.00, 1226.00), 4.00
M 1.00000 18 (373.00, 143.00, 0.00), (421.00, 301.00), 2.00
M 1.00000 19 (1202.00, 19.00, 0.00), (1209.00, 213.00), 5.00
M 1.00000 20 (599.00, 118.00, 0.00), (294.00, 856.00), 1.00
M 1.00000 21 (690.00, 103.00, 0.00), (838.00, 506.00), 1.00
M 1.00000 22 (179.00, 1174.00, 0.00), (146.00, 457.00), 1.00
M 1.00000 23 (82.00, 505.00, 0.00), (34.00, 272.00), 4.00
M 1.00000 24 (374.00, 237.00, 0.00), (126.00, 867.00), 4.00
M 1.00000 25 (110.00, 143.00, 0.00), (496.00, 7.00), 5.00
M 1.00000 26 (100.00, 589.00, 0.00), (1157.00, 383.00), 3.00
M 1.00000 27 (605.00, 369.00, 0.00), (1241.00, 340.00), 1.00
M 1.00000 28 (239.00, 47.00, 0.00), (417.00, 1186.00), 4.00
M 1.00000 29 (1169.00, 736.00, 0.00), (1105.00, 971.00), 2.00
M 1.00000 30 (687.00, 1175.00, 0.00), (731.00, 141.00), 4.00
M 1.00000 31 (1229.00, 37.00, 0.00), (204.00, 742.00), 4.00
M 1.00000 32 (20.00, 659.00, 0.00), (1006.00, 985.00), 5.00
M 1.00000 33 (1087.00, 1185.00, 0.00), (865.00, 1063.00), 2.00
M 1.00000 34 (995.00, 1009.00, 0.00), (274.00, 597.00), 1.00
M 1.00000 35 (1179.00, 640.00, 0.00), (424.00, 856.00), 1.00
M 1.00000 36 (619.00, 1205.00, 0.00), (870.00, 68.00), 3.00
M 1.00000 37 (1018.00, 328.00, 0.00), (948.00, 293.00), 4.00
M 1.00000 38 (1095.00, 1032.00, 0.00), (633.00, 773.00), 1.00
M 1.00000 39 (1171.00, 1079.00, 0.00), (848.00, 1195.00), 3.00
s 1.012825328 _13_ AGT  --- 22 tcp 40 [0 0 0 0] ------- [13:0 9:7 32 0] [0 0] 0 0
r 1.012825328 _13_ RTR  --- 22 tcp 40 [0 0 0 0] ------- [13:0 9:7 32 0] [0 0] 0 0
s 1.012825328 _13_ RTR  --- 22 tcp 60 [0 0 0 0] ------- [13:0 9:7 32 9] [0 0] 0 0
r 1.025953742 _9_ AGT  --- 22 tcp 60 [0 9 d 800] ------- [13:0 9:7 32 9] [0 0] 1 0
s 1.025953742 _9_ AGT  --- 23 ack 40 [0 0 0 0] ------- [9:7 13:0 32 0] [0 0] 0 0
r 1.025953742 _9_ RTR  --- 23 ack 40 [0 0 0 0] ------- [9:7 13:0 32 0] [0 0] 0 0
s 1.025953742 _9_ RTR  --- 23 ack 60 [0 0 0 0] ------- [9:7 13:0 32 13] [0 0] 0 0
r 1.029843880 _13_ AGT  --- 23 ack 60 [0 d 9 800] ------- [9:7 13:0 32 13] [0 0] 1 0
s 1.029843880 _13_ AGT  --- 24 tcp 1040 [0 0 0 0] ------- [13:0 9:7 32 0] [1 0] 0 0
r 1.029843880 _13_ RTR  --- 24 tcp 1040 [0 0 0 0] ------- [13:0 9:7 32 0] [1 0] 0 0
s 1.029843880 _13_ RTR  --- 24 tcp 1060 [0 0 0 0] ------- [13:0 9:7 32 9] [1 0] 0 0
r 1.034246018 _9_ AGT  --- 24 tcp 36 [0 9 d 800] ------- [13:0 9:7 32 9] [1 0] 1 0
s 1.034246018 _9_ AGT  --- 25 ack 40 [0 0 0 0] ------- [9:7 13:0 32 0] [1 0] 0 0
r 1.034246018 _9_ RTR  --- 25 ack 40 [0 0 0 0] ------- [9:7 13:0 32 0] [1 0] 0 0
s 1.034246018 _9_ RTR  --- 25 ack 60 [0 0 0 0] ------- [9:7 13:0 32 13] [1 0] 0 0
r 1.038776156 _13_ AGT  --- 25 ack 60 [0 d 9 800] ------- [9:7 13:0 32 13] [1 0] 1 0
s 1.049263177 _8_ RTR  --- 26 message 32 [0 0 0 0] ------- [8:255 -1:255 32 0] 
r 1.052673365 _35_ RTR  --- 26 message 32 [0 ffffffff 8 800] ------- [8:255 -1:255 32 0] 
r 1.052673468 _29_ RTR  --- 26 message 32 [0 ffffffff 8 800] ------- [8:255 -1:255 32 0] 
r 1.052673656 _12_ RTR  --- 26 message 32 [0 ffffffff 8 800] ------- [8:255 -1:255 32 0] 
r 1.052673734 _7_ RTR  --- 26 message 32 [0 ffffffff 8 800] ------- [8:255 -1:255 32 0] 
s 1.053083472 _20_ AGT  --- 27 tcp 40 [0 0 0 0] ------- [20:1 9:14 32 0] [0 0] 0 0
r 1.053083472 _20_ RTR  --- 27 tcp 40 [0 0 0 0] ------- [20:1 9:14 32 0] [0 0] 0 0
s 1.107219846 _34_ AGT  --- 28 tcp 40 [0 0 0 0] ------- [34:0 9:3 32 0] [0 0] 0 0
r 1.107219846 _34_ RTR  --- 28 tcp 40 [0 0 0 0] ------- [34:0 9:3 32 0] [0 0] 0 0
s 1.107219846 _34_ RTR  --- 28 tcp 60 [0 0 0 0] ------- [34:0 9:3 32 9] [0 0] 0 0
r 1.121628727 _9_ AGT  --- 28 tcp 60 [0 9 22 800] ------- [34:0 9:3 32 9] [0 0] 1 0
s 1.121628727 _9_ AGT  --- 29 ack 40 [0 0 0 0] ------- [9:3 34:0 32 0] [0 0] 0 0
r 1.121628727 _9_ RTR  --- 29 ack 40 [0 0 0 0] ------- [9:3 34:0 32 0] [0 0] 0 0
s 1.121628727 _9_ RTR  --- 29 ack 60 [0 0 0 0] ------- [9:3 34:0 32 34] [0 0] 0 0
r 1.126159020 _34_ AGT  --- 29 ack 60 [0 22 9 800] ------- [9:3 34:0 32 34] [0 0] 1 0
s 1.126159020 _34_ AGT  --- 30 tcp 1040 [0 0 0 0] ------- [34:0 9:3 32 0] [1 0] 0 0
r 1.126159020 _34_ RTR  --- 30 tcp 1040 [0 0 0 0] ------- [34:0 9:3 32 0] [1 0] 0 0
s 1.126159020 _34_ RTR  --- 30 tcp 1060 [0 0 0 0] ------- [34:0 9:3 32 9] [1 0] 0 0
r 1.131201314 _9_ AGT  --- 30 tcp 36 [0 9 22 800] ------- [34:0 9:3 32 9] [1 0] 1 0
s 1.131201314 _9_ AGT  --- 31 ack 40 [0 0 0 0] ------- [9:3 34:0 32 0] [1 0] 0 0
r 1.131201314 _9_ RTR  --- 31 ack 40 [0 0 0 0] ------- [9:3 34:0 32 0] [1 0] 0 0
s 1.131201314 _9_ RTR  --- 31 ack 60 [0 0 0 0] ------- [9:3 34:0 32 34] [1 0] 0 0
r 1.135731608 _34_ AGT  --- 31 ack 60 [0 22 9 800] ------- [9:3 34:0 32 34] [1 0] 1 0
s 1.157653604 _32_ RTR  --- 32 message 32 [0 0 0 0] ------- [32:255 -1:255 32 0] 
r 1.162343638 _6_ RTR  --- 32 message 32 [0 ffffffff 20 800] ------- [32:255 -1:255 32 0] 
r 1.162343958 _26_ RTR  --- 32 message 32 [0 ffffffff 20 800] ------- [32:255 -1:255 32 0] 
r 1.162344159 _23_ RTR  --- 32 message 32 [0 ffffffff 20 800] ------- [32:255 -1:255 32 0] 
r 1.162344430 _14_ RTR  --- 32 message 32 [0 ffffffff 20 800] ------- [32:255 -1:255 32 0] 
s 1.240586482 _6_ RTR  --- 33 message 32 [0 0 0 0] ------- [6:255 -1:255 32 0] 
r 1.243036516 _32_ RTR  --- 33 message 32 [0 ffffffff 6 800] ------- [6:255 -1:255 32 0] 
r 1.243036849 _26_ RTR  --- 33 message 32 [0 ffffffff 6 800] ------- [6:255 -1:255 32 0] 
r 1.243037063 _23_ RTR  --- 33 message 32 [0 ffffffff 6 800] ------- [6:255 -1:255 32 0] 
r 1.243037308 _14_ RTR  --- 33 message 32 [0 ffffffff 6 800] ------- [6:255 -1:255 32 0] 
s 1.254386373 _24_ RTR  --- 34 message 32 [0 0 0 0] ------- [24:255 -1:255 32 0] 
r 1.259076531 _15_ RTR  --- 34 message 32 [0 ffffffff 18 800] ------- [24:255 -1:255 32 0] 
r 1.259076688 _18_ RTR  --- 34 message 32 [0 ffffffff 18 800] ------- [24:255 -1:255 32 0] 
r 1.259076750 _4_ RTR  --- 34 message 32 [0 ffffffff 18 800] ------- [24:255 -1:255 32 0] 
r 1.259077149 _28_ RTR  --- 34 message 32 [0 ffffffff 18 800] ------- [24:255 -1:255 32 0] 
s 1.277448899 _39_ RTR  --- 35 message 32 [0 0 0 0] ------- [39:255 -1:255 32 0] 
r 1.280859196 _38_ RTR  --- 35 message 32 [0 ffffffff 27 800] ------- [39:255 -1:255 32 0] 
r 1.280859309 _1_ RTR  --- 35 message 32 [0 ffffffff 27 800] ------- [39:255 -1:255 32 0] 
r 1.280859347 _33_ RTR  --- 35 message 32 [0 ffffffff 27 800] ------- [39:255 -1:255 32 0] 
r 1.280859488 _16_ RTR  --- 35 message 32 [0 ffffffff 27 800] ------- [39:255 -1:255 32 0] 
r 1.280859529 _34_ RTR  --- 35 message 32 [0 ffffffff 27 800] ------- [39:255 -1:255 32 0] 
r 1.280859695 _9_ RTR  --- 35 message 32 [0 ffffffff 27 800] ------- [39:255 -1:255 32 0] 
s 1.371198109 _7_ AGT  --- 36 tcp 40 [0 0 0 0] ------- [7:0 9:0 32 0] [0 0] 0 0
r 1.371198109 _7_ RTR  --- 36 tcp 40 [0 0 0 0] ------- [7:0 9:0 32 0] [0 0] 0 0
s 1.371198109 _7_ RTR  --- 36 tcp 60 [0 0 0 0] ------- [7:0 9:0 32 9] [0 0] 0 0
r 1.383687412 _9_ AGT  --- 36 tcp 60 [0 9 7 800] ------- [7:0 9:0 32 9] [0 0] 1 0
s 1.383687412 _9_ AGT  --- 37 ack 40 [0 0 0 0] ------- [9:0 7:0 32 0] [0 0] 0 0
r 1.383687412 _9_ RTR  --- 37 ack 40 [0 0 0 0] ------- [9:0 7:0 32 0] [0 0] 0 0
s 1.415823466 _33_ RTR  --- 38 message 32 [0 0 0 0] ------- [33:255 -1:255 32 0] 
r 1.418913711 _16_ RTR  --- 38 message 32 [0 ffffffff 21 800] ------- [33:255 -1:255 32 0] 
r 1.418913914 _39_ RTR  --- 38 message 32 [0 ffffffff 21 800] ------- [33:255 -1:255 32 0] 
r 1.418913976 _38_ RTR  --- 38 message 32 [0 ffffffff 21 800] ------- [33:255 -1:255 32 0] 
r 1.418914127 _34_ RTR  --- 38 message 32 [0 ffffffff 21 800] ------- [33:255 -1:255 32 0] 
s 1.434610508 _8_ AGT  --- 39 tcp 40 [0 0 0 0] ------- [8:1 9:16 32 0] [0 0] 0 0
r 1.434610508 _8_ RTR  --- 39 tcp 40 [0 0 0 0] ------- [8:1 9:16 32 0] [0 0] 0 0
s 1.442372910 _38_ AGT  --- 40 tcp 40 [0 0 0 0] ------- [38:0 9:10 32 0] [0 0] 0 0
r 1.442372910 _38_ RTR  --- 40 tcp 40 [0 0 0 0] ------- [38:0 9:10 32 0] [0 0] 0 0
s 1.442372910 _38_ RTR  --- 40 tcp 60 [0 0 0 0] ------- [38:0 9:10 32 9] [0 0] 0 0
r 1.455502428 _9_ AGT  --- 40 tcp 60 [0 9 26 800] ------- [38:0 9:10 32 9] [0 0] 1 0
s 1.455502428 _9_ AGT  --- 41 ack 40 [0 0 0 0] ------- [9:10 38:0 32 0] [0 0] 0 0
r 1.455502428 _9_ RTR  --- 41 ack 40 [0 0 0 0] ------- [9:10 38:0 32 0] [0 0] 0 0
s 1.459442693 _7_ AGT  --- 42 tcp 40 [0 0 0 0] ------- [7:1 9:19 32 0] [0 0] 0 0
r 1.459442693 _7_ RTR  --- 42 tcp 40 [0 0 0 0] ------- [7:1 9:19 32 0] [0 0] 0 0
s 1.459442693 _7_ RTR  --- 42 tcp 60 [0 0 0 0] ------- [7:1 9:19 32 9] [0 0] 0 0
s 1.462313712 _34_ AGT  --- 43 tcp 1040 [0 0 0 0] ------- [34:0 9:3 32 0] [2 0] 0 0
r 1.462313712 _34_ RTR  --- 43 tcp 1040 [0 0 0 0] ------- [34:0 9:3 32 0] [2 0] 0 0
s 1.462313712 _34_ RTR  --- 43 tcp 1060 [0 0 0 0] ------- [34:0 9:3 32 9] [2 0] 0 0
r 1.464613128 _9_ AGT  --- 42 tcp 60 [0 9 7 800] ------- [7:1 9:19 32 9] [0 0] 1 0
s 1.464613128 _9_ AGT  --- 44 ack 40 [0 0 0 0] ------- [9:19 7:1 32 0] [0 0] 0 0
r 1.464613128 _9_ RTR  --- 44 ack 40 [0 0 0 0] ------- [9:19 7:1 32 0] [0 0] 0 0
r 1.467164006 _9_ AGT  --- 43 tcp 36 [0 9 22 800] ------- [34:0 9:3 32 9] [2 0] 1 0
s 1.467164006 _9_ AGT  --- 45 ack 40 [0 0 0 0] ------- [9:3 34:0 32 0] [2 0] 0 0
r 1.467164006 _9_ RTR  --- 45 ack 40 [0 0 0 0] ------- [9:3 34:0 32 0] [2 0] 0 0
s 1.467164006 _9_ RTR  --- 45 ack 60 [0 0 0 0] ------- [9:3 34:0 32 34] [2 0] 0 0
r 1.472014300 _34_ AGT  --- 45 ack 60 [0 22 9 800] ------- [9:3 34:0 32 34] [2 0] 1 0
s 1.477312469 _21_ RTR  --- 46 message 32 [0 0 0 0] ------- [21:255 -1:255 32 0] 
r 1.482002777 _20_ RTR  --- 46 message 32 [0 ffffffff 15 800] ------- [21:255 -1:255 32 0] 
s 1.514826028 _5_ RTR  --- 47 message 32 [0 0 0 0] ------- [5:255 -1:255 32 0] 
r 1.518876307 _37_ RTR  --- 47 message 32 [0 ffffffff 5 800] ------- [5:255 -1:255 32 0] 
r 1.518876733 _2_ RTR  --- 47 message 32 [0 ffffffff 5 800] ------- [5:255 -1:255 32 0] 
s 1.582469288 _7_ RTR  --- 48 message 32 [0 0 0 0] ------- [7:255 -1:255 32 0] 
r 1.585879710 _29_ RTR  --- 48 message 32 [0 ffffffff 7 800] ------- [7:255 -1:255 32 0] 
r 1.585879723 _9_ RTR  --- 48 message 32 [0 ffffffff 7 800] ------- [7:255 -1:255 32 0] 
s 1.585879723 _9_ RTR  --- 37 ack 80 [0 0 0 0] ------- [9:0 7:0 32 7] [0 0] 0 0
s 1.585879723 _9_ RTR  --- 44 ack 80 [0 0 0 0] ------- [9:19 7:1 32 7] [0 0] 0 0
r 1.585879743 _13_ RTR  --- 48 message 32 [0 ffffffff 7 800] ------- [7:255 -1:255 32 0] 
r 1.585879844 _8_ RTR  --- 48 message 32 [0 ffffffff 7 800] ------- [7:255 -1:255 32 0] 
r 1.585879894 _12_ RTR  --- 48 message 32 [0 ffffffff 7 800] ------- [7:255 -1:255 32 0] 
r 1.585879946 _1_ RTR  --- 48 message 32 [0 ffffffff 7 800] ------- [7:255 -1:255 32 0] 
r 1.585879976 _34_ RTR  --- 48 message 32 [0 ffffffff 7 800] ------- [7:255 -1:255 32 0] 
r 1.585879978 _35_ RTR  --- 48 message 32 [0 ffffffff 7 800] ------- [7:255 -1:255 32 0] 
r 1.585880009 _38_ RTR  --- 48 message 32 [0 ffffffff 7 800] ------- [7:255 -1:255 32 0] 
s 1.591798384 _38_ RTR  --- 49 message 32 [0 0 0 0] ------- [38:255 -1:255 32 0] 
r 1.592650159 _7_ AGT  --- 37 ack 80 [0 7 9 800] ------- [9:0 7:0 32 7] [0 0] 1 0
s 1.592650159 _7_ AGT  --- 50 tcp 1040 [0 0 0 0] ------- [7:0 9:0 32 0] [1 0] 0 0
r 1.592650159 _7_ RTR  --- 50 tcp 1040 [0 0 0 0] ------- [7:0 9:0 32 0] [1 0] 0 0
s 1.592650159 _7_ RTR  --- 50 tcp 1060 [0 0 0 0] ------- [7:0 9:0 32 9] [1 0] 0 0
r 1.595208680 _39_ RTR  --- 49 message 32 [0 ffffffff 26 800] ------- [38:255 -1:255 32 0] 
r 1.595208894 _33_ RTR  --- 49 message 32 [0 ffffffff 26 800] ------- [38:255 -1:255 32 0] 
r 1.603531030 _7_ AGT  --- 44 ack 80 [0 7 9 800] ------- [9:19 7:1 32 7] [0 0] 1 0
s 1.603531030 _7_ AGT  --- 51 tcp 1040 [0 0 0 0] ------- [7:1 9:19 32 0] [1 0] 0 0
r 1.603531030 _7_ RTR  --- 51 tcp 1040 [0 0 0 0] ------- [7:1 9:19 32 0] [1 0] 0 0
s 1.603531030 _7_ RTR  --- 51 tcp 1060 [0 0 0 0] ------- [7:1 9:19 32 9] [1 0] 0 0
r 1.606923466 _9_ AGT  --- 50 tcp 36 [0 9 7 800] ------- [7:0 9:0 32 9] [1 0] 1 0
s 1.606923466 _9_ AGT  --- 52 ack 40 [0 0 0 0] ------- [9:0 7:0 32 0] [1 0] 0 0
r 1.606923466 _9_ RTR  --- 52 ack 40 [0 0 0 0] ------- [9:0 7:0 32 0] [1 0] 0 0
s 1.606923466 _9_ RTR  --- 52 ack 60 [0 0 0 0] ------- [9:0 7:0 32 7] [1 0] 0 0
r 1.610813902 _7_ AGT  --- 52 ack 60 [0 7 9 800] ------- [9:0 7:0 32 7] [1 0] 1 0
r 1.614846338 _9_ AGT  --- 51 tcp 36 [0 9 7 800] ------- [7:1 9:19 32 9] [1 0] 1 0
s 1.614846338 _9_ AGT  --- 54 ack 40 [0 0 0 0] ------- [9:19 7:1 32 0] [1 0] 0 0
r 1.614846338 _9_ RTR  --- 54 ack 40 [0 0 0 0] ------- [9:19 7:1 32 0] [1 0] 0 0
s 1.614846338 _9_ RTR  --- 54 ack 60 [0 0 0 0] ------- [9:19 7:1 32 7] [1 0] 0 0
s 1.619150369 _2_ RTR  --- 53 message 32 [0 0 0 0] ------- [2:255 -1:255 32 0] 
r 1.619376774 _7_ AGT  --- 54 ack 60 [0 7 9 800] ------- [9:19 7:1 32 7] [1 0] 1 0
r 1.621920897 _37_ RTR  --- 53 message 32 [0 ffffffff 2 800] ------- [2:255 -1:255 32 0] 
r 1.621921073 _5_ RTR  --- 53 message 32 [0 ffffffff 2 800] ------- [2:255 -1:255 32 0] 
r 1.621921142 _12_ RTR  --- 53 message 32 [0 ffffffff 2 800] ------- [2:255 -1:255 32 0] 
s 1.641620394 _34_ AGT  --- 55 tcp 1040 [0 0 0 0] ------- [34:0 9:3 32 0] [3 0] 0 0
r 1.641620394 _34_ RTR  --- 55 tcp 1040 [0 0 0 0] ------- [34:0 9:3 32 0] [3 0] 0 0
s 1.641620394 _34_ RTR  --- 55 tcp 1060 [0 0 0 0] ------- [34:0 9:3 32 9] [3 0] 0 0
r 1.646342688 _9_ AGT  --- 55 tcp 36 [0 9 22 800] ------- [34:0 9:3 32 9] [3 0] 1 0
s 1.646342688 _9_ AGT  --- 56 ack 40 [0 0 0 0] ------- [9:3 34:0 32 0] [3 0] 0 0
r 1.646342688 _9_ RTR  --- 56 ack 40 [0 0 0 0] ------- [9:3 34:0 32 0] [3 0] 0 0
s 1.646342688 _9_ RTR  --- 56 ack 60 [0 0 0 0] ------- [9:3 34:0 32 34] [3 0] 0 0
r 1.652152982 _34_ AGT  --- 56 ack 60 [0 22 9 800] ------- [9:3 34:0 32 34] [3 0] 1 0
s 1.661803740 _35_ RTR  --- 57 message 32 [0 0 0 0] ------- [35:255 -1:255 32 0] 
r 1.664253929 _8_ RTR  --- 57 message 32 [0 ffffffff 23 800] ------- [35:255 -1:255 32 0] 
r 1.664254065 _29_ RTR  --- 57 message 32 [0 ffffffff 23 800] ------- [35:255 -1:255 32 0] 
r 1.664254399 _12_ RTR  --- 57 message 32 [0 ffffffff 23 800] ------- [35:255 -1:255 32 0] 
r 1.664254429 _7_ RTR  --- 57 message 32 [0 ffffffff 23 800] ------- [35:255 -1:255 32 0] 
s 1.682988262 _28_ AGT  --- 58 tcp 40 [0 0 0 0] ------- [28:0 9:9 32 0] [0 0] 0 0
r 1.682988262 _28_ RTR  --- 58 tcp 40 [0 0 0 0] ------- [28:0 9:9 32 0] [0 0] 0 0
s 1.706170718 _25_ RTR  --- 59 message 32 [0 0 0 0] ------- [25:255 -1:255 32 0] 
r 1.709261238 _28_ RTR  --- 59 message 32 [0 ffffffff 19 800] ------- [25:255 -1:255 32 0] 
r 1.709261456 _4_ RTR  --- 59 message 32 [0 ffffffff 19 800] ------- [25:255 -1:255 32 0] 
r 1.709261539 _15_ RTR  --- 59 message 32 [0 ffffffff 19 800] ------- [25:255 -1:255 32 0] 
s 1.739064461 _20_ AGT  --- 60 tcp 40 [0 0 0 0] ------- [20:0 9:5 32 0] [0 0] 0 0
r 1.739064461 _20_ RTR  --- 60 tcp 40 [0 0 0 0] ------- [20:0 9:5 32 0] [0 0] 0 0
s 1.749794731 _30_ RTR  --- 61 message 32 [0 0 0 0] ------- [30:255 -1:255 32 0] 
r 1.752884979 _36_ RTR  --- 61 message 32 [0 ffffffff 1e 800] ------- [30:255 -1:255 32 0] 
s 1.756853897 _25_ AGT  --- 62 tcp 40 [0 0 0 0] ------- [25:0 9:2 32 0] [0 0] 0 0
r 1.756853897 _25_ RTR  --- 62 tcp 40 [0 0 0 0] ------- [25:0 9:2 32 0] [0 0] 0 0
s 1.765425219 _1_ RTR  --- 63 message 32 [0 0 0 0] ------- [1:255 -1:255 32 0] 
s 1.769420248 _0_ RTR  --- 64 message 32 [0 0 0 0] ------- [0:255 -1:255 32 0] 
r 1.769475631 _39_ RTR  --- 63 message 32 [0 ffffffff 1 800] ------- [1:255 -1:255 32 0] 
r 1.769475654 _38_ RTR  --- 63 message 32 [0 ffffffff 1 800] ------- [1:255 -1:255 32 0] 
r 1.769475879 _7_ RTR  --- 63 message 32 [0 ffffffff 1 800] ------- [1:255 -1:255 32 0] 
r 1.769475936 _34_ RTR  --- 63 message 32 [0 ffffffff 1 800] ------- [1:255 -1:255 32 0] 
r 1.769475944 _9_ RTR  --- 63 message 32 [0 ffffffff 1 800] ------- [1:255 -1:255 32 0] 
r 1.769475975 _29_ RTR  --- 63 message 32 [0 ffffffff 1 800] ------- [1:255 -1:255 32 0] 
r 1.773150742 _3_ RTR  --- 64 message 32 [0 ffffffff 0 800] ------- [0:255 -1:255 32 0] 
r 1.773150821 _17_ RTR  --- 64 message 32 [0 ffffffff 0 800] ------- [0:255 -1:255 32 0] 
r 1.773150957 _14_ RTR  --- 64 message 32 [0 ffffffff 0 800] ------- [0:255 -1:255 32 0] 
s 1.795148898 _23_ RTR  --- 65 message 32 [0 0 0 0] ------- [23:255 -1:255 32 0] 
r 1.799199195 _26_ RTR  --- 65 message 32 [0 ffffffff 17 800] ------- [23:255 -1:255 32 0] 
r 1.799199460 _32_ RTR  --- 65 message 32 [0 ffffffff 17 800] ------- [23:255 -1:255 32 0] 
r 1.799199482 _6_ RTR  --- 65 message 32 [0 ffffffff 17 800] ------- [23:255 -1:255 32 0] 
r 1.799199516 _14_ RTR  --- 65 message 32 [0 ffffffff 17 800] ------- [23:255 -1:255 32 0] 
s 1.801561012 _16_ RTR  --- 66 message 32 [0 0 0 0] ------- [16:255 -1:255 32 0] 
r 1.805931255 _33_ RTR  --- 66 message 32 [0 ffffffff 10 800] ------- [16:255 -1:255 32 0] 
r 1.805931597 _39_ RTR  --- 66 message 32 [0 ffffffff 10 800] ------- [16:255 -1:255 32 0] 
r 1.805931740 _38_ RTR  --- 66 message 32 [0 ffffffff 10 800] ------- [16:255 -1:255 32 0] 
s 1.810262093 _2_ AGT  --- 67 tcp 40 [0 0 0 0] ------- [2:0 9:18 32 0] [0 0] 0 0
r 1.810262093 _2_ RTR  --- 67 tcp 40 [0 0 0 0] ------- [2:0 9:18 32 0] [0 0] 0 0
s 1.837871543 _8_ AGT  --- 68 tcp 40 [0 0 0 0] ------- [8:0 9:8 32 0] [0 0] 0 0
r 1.837871543 _8_ RTR  --- 68 tcp 40 [0 0 0 0] ------- [8:0 9:8 32 0] [0 0] 0 0
s 1.868307019 _34_ AGT  --- 69 tcp 1040 [0 0 0 0] ------- [34:0 9:3 32 0] [4 0] 0 0
r 1.868307019 _34_ RTR  --- 69 tcp 1040 [0 0 0 0] ------- [34:0 9:3 32 0] [4 0] 0 0
s 1.868307019 _34_ RTR  --- 69 tcp 1060 [0 0 0 0] ------- [34:0 9:3 32 9] [4 0] 0 0
r 1.871749313 _9_ AGT  --- 69 tcp 36 [0 9 22 800] ------- [34:0 9:3 32 9] [4 0] 1 0
s 1.871749313 _9_ AGT  --- 70 ack 40 [0 0 0 0] ------- [9:3 34:0 32 0] [4 0] 0 0
r 1.871749313 _9_ RTR  --- 70 ack 40 [0 0 0 0] ------- [9:3 34:0 32 0] [4 0] 0 0
s 1.871749313 _9_ RTR  --- 70 ack 60 [0 0 0 0] ------- [9:3 34:0 32 34] [4 0] 0 0
r 1.876279607 _34_ AGT  --- 70 ack 60 [0 22 9 800] ------- [9:3 34:0 32 34] [4 0] 1 0
s 1.938202815 _30_ AGT  --- 71 tcp 40 [0 0 0 0] ------- [30:0 9:11 32 0] [0 0] 0 0
r 1.938202815 _30_ RTR  --- 71 tcp 40 [0 0 0 0] ------- [30:0 9:11 32 0] [0 0] 0 0
s 2.034867645 _17_ AGT  --- 72 tcp 40 [0 0 0 0] ------- [17:0 9:13 32 0] [0 0] 0 0
r 2.034867645 _17_ RTR  --- 72 tcp 40 [0 0 0 0] ------- [17:0 9:13 32 0] [0 0] 0 0
s 2.040609652 _16_ AGT  --- 73 tcp 40 [0 0 0 0] ------- [16:0 9:4 32 0] [0 0] 0 0
r 2.040609652 _16_ RTR  --- 73 tcp 40 [0 0 0 0] ------- [16:0 9:4 32 0] [0 0] 0 0
s 2.167669868 _7_ AGT  --- 74 tcp 1040 [0 0 0 0] ------- [7:1 9:19 32 0] [2 0] 0 0
r 2.167669868 _7_ RTR  --- 74 tcp 1040 [0 0 0 0] ------- [7:1 9:19 32 0] [2 0] 0 0
s 2.167669868 _7_ RTR  --- 74 tcp 1060 [0 0 0 0] ------- [7:1 9:19 32 9] [2 0] 0 0
r 2.171112307 _9_ AGT  --- 74 tcp 36 [0 9 7 800] ------- [7:1 9:19 32 9] [2 0] 1 0
s 2.171112307 _9_ AGT  --- 75 ack 40 [0 0 0 0] ------- [9:19 7:1 32 0] [2 0] 0 0
r 2.171112307 _9_ RTR  --- 75 ack 40 [0 0 0 0] ------- [9:19 7:1 32 0] [2 0] 0 0
s 2.171112307 _9_ RTR  --- 75 ack 60 [0 0 0 0] ------- [9:19 7:1 32 7] [2 0] 0 0
s 2.174251786 _7_ AGT  --- 76 tcp 1040 [0 0 0 0] ------- [7:0 9:0 32 0] [2 0] 0 0
r 2.174251786 _7_ RTR  --- 76 tcp 1040 [0 0 0 0] ------- [7:0 9:0 32 0] [2 0] 0 0
s 2.174251786 _7_ RTR  --- 76 tcp 1060 [0 0 0 0] ------- [7:0 9:0 32 9] [2 0] 0 0
r 2.175322745 _7_ AGT  --- 75 ack 60 [0 7 9 800] ------- [9:19 7:1 32 7] [2 0] 1 0
r 2.179995184 _9_ AGT  --- 76 tcp 36 [0 9 7 800] ------- [7:0 9:0 32 9] [2 0] 1 0
s 2.179995184 _9_ AGT  --- 77 ack 40 [0 0 0 0] ------- [9:0 7:0 32 0] [2 0] 0 0
r 2.179995184 _9_ RTR  --- 77 ack 40 [0 0 0 0] ------- [9:0 7:0 32 0] [2 0] 0 0
s 2.179995184 _9_ RTR  --- 77 ack 60 [0 0 0 0] ------- [9:0 7:0 32 7] [2 0] 0 0
r 2.183885623 _7_ AGT  --- 77 ack 60 [0 7 9 800] ------- [9:0 7:0 32 7] [2 0] 1 0
s 2.285870635 _3_ AGT  --- 78 tcp 40 [0 0 0 0] ------- [3:1 9:12 32 0] [0 0] 0 0
r 2.285870635 _3_ RTR  --- 78 tcp 40 [0 0 0 0] ------- [3:1 9:12 32 0] [0 0] 0 0
s 2.332720714 _5_ AGT  --- 79 tcp 40 [0 0 0 0] ------- [5:0 9:1 32 0] [0 0] 0 0
r 2.332720714 _5_ RTR  --- 79 tcp 40 [0 0 0 0] ------- [5:0 9:1 32 0] [0 0] 0 0
s 2.729083964 _7_ AGT  --- 80 tcp 1040 [0 0 0 0] ------- [7:0 9:0 32 0] [3 0] 0 0
r 2.729083964 _7_ RTR  --- 80 tcp 1040 [0 0 0 0] ------- [7:0 9:0 32 0] [3 0] 0 0
s 2.729083964 _7_ RTR  --- 80 tcp 1060 [0 0 0 0] ------- [7:0 9:0 32 9] [3 0] 0 0
r 2.734126405 _9_ AGT  --- 80 tcp 36 [0 9 7 800] ------- [7:0 9:0 32 9] [3 0] 1 0
s 2.734126405 _9_ AGT  --- 81 ack 40 [0 0 0 0] ------- [9:0 7:0 32 0] [3 0] 0 0
r 2.734126405 _9_ RTR  --- 81 ack 40 [0 0 0 0] ------- [9:0 7:0 32 0] [3 0] 0 0
s 2.734126405 _9_ RTR  --- 81 ack 60 [0 0 0 0] ------- [9:0 7:0 32 7] [3 0] 0 0