s 0.036328457 _11_ RTR  --- 0 message 32 [0 0 0 0] ------- [11:255 -1:255 32 0] 
r 0.038778573 _12_ RTR  --- 0 message 32 [0 ffffffff b 800] ------- [11:255 -1:255 32 0] 
r 0.038778625 _13_ RTR  --- 0 message 32 [0 ffffffff b 800] ------- [11:255 -1:255 32 0] 
r 0.038778637 _2_ RTR  --- 0 message 32 [0 ffffffff b 800] ------- [11:255 -1:255 32 0] 
r 0.038778649 _7_ RTR  --- 0 message 32 [0 ffffffff b 800] ------- [11:255 -1:255 32 0] 
r 0.038778652 _9_ RTR  --- 0 message 32 [0 ffffffff b 800] ------- [11:255 -1:255 32 0] 
r 0.038778668 _8_ RTR  --- 0 message 32 [0 ffffffff b 800] ------- [11:255 -1:255 32 0] 
r 0.038778696 _29_ RTR  --- 0 message 32 [0 ffffffff b 800] ------- [11:255 -1:255 32 0] 
r 0.038778699 _34_ RTR  --- 0 message 32 [0 ffffffff b 800] ------- [11:255 -1:255 32 0] 
r 0.038778703 _35_ RTR  --- 0 message 32 [0 ffffffff b 800] ------- [11:255 -1:255 32 0] 
r 0.038778712 _17_ RTR  --- 0 message 32 [0 ffffffff b 800] ------- [11:255 -1:255 32 0] 
r 0.038778715 _27_ RTR  --- 0 message 32 [0 ffffffff b 800] ------- [11:255 -1:255 32 0] 
r 0.038778736 _37_ RTR  --- 0 message 32 [0 ffffffff b 800] ------- [11:255 -1:255 32 0] 
r 0.038778751 _38_ RTR  --- 0 message 32 [0 ffffffff b 800] ------- [11:255 -1:255 32 0] 
r 0.038778763 _0_ RTR  --- 0 message 32 [0 ffffffff b 800] ------- [11:255 -1:255 32 0] 
r 0.038778769 _3_ RTR  --- 0 message 32 [0 ffffffff b 800] ------- [11:255 -1:255 32 0] 
r 0.038778773 _1_ RTR  --- 0 message 32 [0 ffffffff b 800] ------- [11:255 -1:255 32 0] 
r 0.038778777 _5_ RTR  --- 0 message 32 [0 ffffffff b 800] ------- [11:255 -1:255 32 0] 
r 0.038778788 _30_ RTR  --- 0 message 32 [0 ffffffff b 800] ------- [11:255 -1:255 32 0] 
r 0.038778809 _39_ RTR  --- 0 message 32 [0 ffffffff b 800] ------- [11:255 -1:255 32 0] 
r 0.038778821 _36_ RTR  --- 0 message 32 [0 ffffffff b 800] ------- [11:255 -1:255 32 0] 
r 0.038778832 _33_ RTR  --- 0 message 32 [0 ffffffff b 800] ------- [11:255 -1:255 32 0] 
r 0.038778839 _14_ RTR  --- 0 message 32 [0 ffffffff b 800] ------- [11:255 -1:255 32 0] 
r 0.038778859 _21_ RTR  --- 0 message 32 [0 ffffffff b 800] ------- [11:255 -1:255 32 0] 
r 0.038778866 _20_ RTR  --- 0 message 32 [0 ffffffff b 800] ------- [11:255 -1:255 32 0] 
r 0.038778879 _24_ RTR  --- 0 message 32 [0 ffffffff b 800] ------- [11:255 -1:255 32 0] 
r 0.038778881 _16_ RTR  --- 0 message 32 [0 ffffffff b 800] ------- [11:255 -1:255 32 0] 
r 0.038778910 _15_ RTR  --- 0 message 32 [0 ffffffff b 800] ------- [11:255 -1:255 32 0] 
r 0.038778927 _18_ RTR  --- 0 message 32 [0 ffffffff b 800] ------- [11:255 -1:255 32 0] 
r 0.038778939 _26_ RTR  --- 0 message 32 [0 ffffffff b 800] ------- [11:255 -1:255 32 0] 
r 0.038778949 _4_ RTR  --- 0 message 32 [0 ffffffff b 800] ------- [11:255 -1:255 32 0] 
r 0.038778960 _23_ RTR  --- 0 message 32 [0 ffffffff b 800] ------- [11:255 -1:255 32 0] 
r 0.038778974 _31_ RTR  --- 0 message 32 [0 ffffffff b 800] ------- [11:255 -1:255 32 0] 
r 0.038778977 _19_ RTR  --- 0 message 32 [0 ffffffff b 800] ------- [11:255 -1:255 32 0] 
r 0.038778984 _6_ RTR  --- 0 message 32 [0 ffffffff b 800] ------- [11:255 -1:255 32 0] 
r 0.038778988 _32_ RTR  --- 0 message 32 [0 ffffffff b 800] ------- [11:255 -1:255 32 0] 
r 0.038778988 _22_ RTR  --- 0 message 32 [0 ffffffff b 800] ------- [11:255 -1:255 32 0] 
r 0.038779033 _28_ RTR  --- 0 message 32 [0 ffffffff b 800] ------- [11:255 -1:255 32 0] 
r 0.038779037 _10_ RTR  --- 0 message 32 [0 ffffffff b 800] ------- [11:255 -1:255 32 0] 
r 0.038779053 _25_ RTR  --- 0 message 32 [0 ffffffff b 800] ------- [11:255 -1:255 32 0] 
s 0.073282045 _4_ RTR  --- 1 message 32 [0 0 0 0] ------- [4:255 -1:255 32 0] 
r 0.076692073 _18_ RTR  --- 1 message 32 [0 ffffffff 4 800] ------- [4:255 -1:255 32 0] 
r 0.076692087 _15_ RTR  --- 1 message 32 [0 ffffffff 4 800] ------- [4:255 -1:255 32 0] 
r 0.076692120 _24_ RTR  --- 1 message 32 [0 ffffffff 4 800] ------- [4:255 -1:255 32 0] 
r 0.076692130 _28_ RTR  --- 1 message 32 [0 ffffffff 4 800] ------- [4:255 -1:255 32 0] 
r 0.076692195 _25_ RTR  --- 1 message 32 [0 ffffffff 4 800] ------- [4:255 -1:255 32 0] 
r 0.076692222 _20_ RTR  --- 1 message 32 [0 ffffffff 4 800] ------- [4:255 -1:255 32 0] 
r 0.076692283 _21_ RTR  --- 1 message 32 [0 ffffffff 4 800] ------- [4:255 -1:255 32 0] 
r 0.076692284 _27_ RTR  --- 1 message 32 [0 ffffffff 4 800] ------- [4:255 -1:255 32 0] 
r 0.076692343 _23_ RTR  --- 1 message 32 [0 ffffffff 4 800] ------- [4:255 -1:255 32 0] 
r 0.076692343 _14_ RTR  --- 1 message 32 [0 ffffffff 4 800] ------- [4:255 -1:255 32 0] 
r 0.076692362 _3_ RTR  --- 1 message 32 [0 ffffffff 4 800] ------- [4:255 -1:255 32 0] 
r 0.076692386 _26_ RTR  --- 1 message 32 [0 ffffffff 4 800] ------- [4:255 -1:255 32 0] 
r 0.076692453 _32_ RTR  --- 1 message 32 [0 ffffffff 4 800] ------- [4:255 -1:255 32 0] 
r 0.076692457 _6_ RTR  --- 1 message 32 [0 ffffffff 4 800] ------- [4:255 -1:255 32 0] 
r 0.076692459 _0_ RTR  --- 1 message 32 [0 ffffffff 4 800] ------- [4:255 -1:255 32 0] 
r 0.076692476 _2_ RTR  --- 1 message 32 [0 ffffffff 4 800] ------- [4:255 -1:255 32 0] 
r 0.076692492 _5_ RTR  --- 1 message 32 [0 ffffffff 4 800] ------- [4:255 -1:255 32 0] 
r 0.076692520 _37_ RTR  --- 1 message 32 [0 ffffffff 4 800] ------- [4:255 -1:255 32 0] 
r 0.076692537 _11_ RTR  --- 1 message 32 [0 ffffffff 4 800] ------- [4:255 -1:255 32 0] 
r 0.076692551 _17_ RTR  --- 1 message 32 [0 ffffffff 4 800] ------- [4:255 -1:255 32 0] 
r 0.076692602 _12_ RTR  --- 1 message 32 [0 ffffffff 4 800] ------- [4:255 -1:255 32 0] 
r 0.076692630 _19_ RTR  --- 1 message 32 [0 ffffffff 4 800] ------- [4:255 -1:255 32 0] 
r 0.076692645 _31_ RTR  --- 1 message 32 [0 ffffffff 4 800] ------- [4:255 -1:255 32 0] 
r 0.076692680 _8_ RTR  --- 1 message 32 [0 ffffffff 4 800] ------- [4:255 -1:255 32 0] 
r 0.076692701 _35_ RTR  --- 1 message 32 [0 ffffffff 4 800] ------- [4:255 -1:255 32 0] 
r 0.076692704 _13_ RTR  --- 1 message 32 [0 ffffffff 4 800] ------- [4:255 -1:255 32 0] 
r 0.076692717 _7_ RTR  --- 1 message 32 [0 ffffffff 4 800] ------- [4:255 -1:255 32 0] 
r 0.076692731 _9_ RTR  --- 1 message 32 [0 ffffffff 4 800] ------- [4:255 -1:255 32 0] 
r 0.076692732 _29_ RTR  --- 1 message 32 [0 ffffffff 4 800] ------- [4:255 -1:255 32 0] 
r 0.076692746 _22_ RTR  --- 1 message 32 [0 ffffffff 4 800] ------- [4:255 -1:255 32 0] 
r 0.076692776 _34_ RTR  --- 1 message 32 [0 ffffffff 4 800] ------- [4:255 -1:255 32 0] 
r 0.076692778 _30_ RTR  --- 1 message 32 [0 ffffffff 4 800] ------- [4:255 -1:255 32 0] 
r 0.076692783 _36_ RTR  --- 1 message 32 [0 ffffffff 4 800] ------- [4:255 -1:255 32 0] 
r 0.076692785 _10_ RTR  --- 1 message 32 [0 ffffffff 4 800] ------- [4:255 -1:255 32 0] 
r 0.076692830 _38_ RTR  --- 1 message 32 [0 ffffffff 4 800] ------- [4:255 -1:255 32 0] 
r 0.076692847 _1_ RTR  --- 1 message 32 [0 ffffffff 4 800] ------- [4:255 -1:255 32 0] 
s 0.088584275 _31_ RTR  --- 2 message 32 [0 0 0 0] ------- [31:255 -1:255 32 0] 
r 0.092634296 _19_ RTR  --- 2 message 32 [0 ffffffff 1f 800] ------- [31:255 -1:255 32 0] 
r 0.092634485 _5_ RTR  --- 2 message 32 [0 ffffffff 1f 800] ------- [31:255 -1:255 32 0] 
r 0.092634513 _37_ RTR  --- 2 message 32 [0 ffffffff 1f 800] ------- [31:255 -1:255 32 0] 
r 0.092634618 _2_ RTR  --- 2 message 32 [0 ffffffff 1f 800] ------- [31:255 -1:255 32 0] 
r 0.092634637 _21_ RTR  --- 2 message 32 [0 ffffffff 1f 800] ------- [31:255 -1:255 32 0] 
r 0.092634676 _35_ RTR  --- 2 message 32 [0 ffffffff 1f 800] ------- [31:255 -1:255 32 0] 
r 0.092634693 _8_ RTR  --- 2 message 32 [0 ffffffff 1f 800] ------- [31:255 -1:255 32 0] 
r 0.092634698 _20_ RTR  --- 2 message 32 [0 ffffffff 1f 800] ------- [31:255 -1:255 32 0] 
r 0.092634719 _12_ RTR  --- 2 message 32 [0 ffffffff 1f 800] ------- [31:255 -1:255 32 0] 
r 0.092634743 _29_ RTR  --- 2 message 32 [0 ffffffff 1f 800] ------- [31:255 -1:255 32 0] 
r 0.092634746 _27_ RTR  --- 2 message 32 [0 ffffffff 1f 800] ------- [31:255 -1:255 32 0] 
r 0.092634792 _11_ RTR  --- 2 message 32 [0 ffffffff 1f 800] ------- [31:255 -1:255 32 0] 
r 0.092634805 _7_ RTR  --- 2 message 32 [0 ffffffff 1f 800] ------- [31:255 -1:255 32 0] 
r 0.092634849 _18_ RTR  --- 2 message 32 [0 ffffffff 1f 800] ------- [31:255 -1:255 32 0] 
r 0.092634860 _24_ RTR  --- 2 message 32 [0 ffffffff 1f 800] ------- [31:255 -1:255 32 0] 
r 0.092634867 _15_ RTR  --- 2 message 32 [0 ffffffff 1f 800] ------- [31:255 -1:255 32 0] 
r 0.092634875 _4_ RTR  --- 2 message 32 [0 ffffffff 1f 800] ------- [31:255 -1:255 32 0] 
r 0.092634876 _13_ RTR  --- 2 message 32 [0 ffffffff 1f 800] ------- [31:255 -1:255 32 0] 
r 0.092634885 _9_ RTR  --- 2 message 32 [0 ffffffff 1f 800] ------- [31:255 -1:255 32 0] 
r 0.092634892 _1_ RTR  --- 2 message 32 [0 ffffffff 1f 800] ------- [31:255 -1:255 32 0] 
r 0.092634935 _28_ RTR  --- 2 message 32 [0 ffffffff 1f 800] ------- [31:255 -1:255 32 0] 
r 0.092634940 _34_ RTR  --- 2 message 32 [0 ffffffff 1f 800] ------- [31:255 -1:255 32 0] 
r 0.092634944 _38_ RTR  --- 2 message 32 [0 ffffffff 1f 800] ------- [31:255 -1:255 32 0] 
r 0.092634969 _39_ RTR  --- 2 message 32 [0 ffffffff 1f 800] ------- [31:255 -1:255 32 0] 
r 0.092634971 _3_ RTR  --- 2 message 32 [0 ffffffff 1f 800] ------- [31:255 -1:255 32 0] 
r 0.092635016 _14_ RTR  --- 2 message 32 [0 ffffffff 1f 800] ------- [31:255 -1:255 32 0] 
r 0.092635025 _25_ RTR  --- 2 message 32 [0 ffffffff 1f 800] ------- [31:255 -1:255 32 0] 
r 0.092635025 _17_ RTR  --- 2 message 32 [0 ffffffff 1f 800] ------- [31:255 -1:255 32 0] 
r 0.092635025 _0_ RTR  --- 2 message 32 [0 ffffffff 1f 800] ------- [31:255 -1:255 32 0] 
r 0.092635044 _33_ RTR  --- 2 message 32 [0 ffffffff 1f 800] ------- [31:255 -1:255 32 0] 
r 0.092635084 _16_ RTR  --- 2 message 32 [0 ffffffff 1f 800] ------- [31:255 -1:255 32 0] 
r 0.092635099 _23_ RTR  --- 2 message 32 [0 ffffffff 1f 800] ------- [31:255 -1:255 32 0] 
s 0.126846076 _36_ RTR  --- 3 message 32 [0 0 0 0] ------- [36:255 -1:255 32 0] 
s 0.129642904 _28_ RTR  --- 4 message 32 [0 0 0 0] ------- [28:255 -1:255 32 0] 
r 0.130896127 _30_ RTR  --- 3 message 32 [0 ffffffff 24 800] ------- [36:255 -1:255 32 0] 
r 0.130896312 _17_ RTR  --- 3 message 32 [0 ffffffff 24 800] ------- [36:255 -1:255 32 0] 
r 0.130896358 _34_ RTR  --- 3 message 32 [0 ffffffff 24 800] ------- [36:255 -1:255 32 0] 
r 0.130896370 _22_ RTR  --- 3 message 32 [0 ffffffff 24 800] ------- [36:255 -1:255 32 0] 
r 0.130896380 _13_ RTR  --- 3 message 32 [0 ffffffff 24 800] ------- [36:255 -1:255 32 0] 
r 0.130896388 _9_ RTR  --- 3 message 32 [0 ffffffff 24 800] ------- [36:255 -1:255 32 0] 
r 0.130896389 _33_ RTR  --- 3 message 32 [0 ffffffff 24 800] ------- [36:255 -1:255 32 0] 
r 0.130896406 _10_ RTR  --- 3 message 32 [0 ffffffff 24 800] ------- [36:255 -1:255 32 0] 
r 0.130896412 _38_ RTR  --- 3 message 32 [0 ffffffff 24 800] ------- [36:255 -1:255 32 0] 
r 0.130896414 _16_ RTR  --- 3 message 32 [0 ffffffff 24 800] ------- [36:255 -1:255 32 0] 
r 0.130896422 _0_ RTR  --- 3 message 32 [0 ffffffff 24 800] ------- [36:255 -1:255 32 0] 
r 0.130896440 _11_ RTR  --- 3 message 32 [0 ffffffff 24 800] ------- [36:255 -1:255 32 0] 
r 0.130896455 _39_ RTR  --- 3 message 32 [0 ffffffff 24 800] ------- [36:255 -1:255 32 0] 
r 0.130896473 _7_ RTR  --- 3 message 32 [0 ffffffff 24 800] ------- [36:255 -1:255 32 0] 
r 0.130896497 _1_ RTR  --- 3 message 32 [0 ffffffff 24 800] ------- [36:255 -1:255 32 0] 
r 0.130896510 _3_ RTR  --- 3 message 32 [0 ffffffff 24 800] ------- [36:255 -1:255 32 0] 
r 0.130896513 _12_ RTR  --- 3 message 32 [0 ffffffff 24 800] ------- [36:255 -1:255 32 0] 
r 0.130896556 _29_ RTR  --- 3 message 32 [0 ffffffff 24 800] ------- [36:255 -1:255 32 0] 
r 0.130896561 _14_ RTR  --- 3 message 32 [0 ffffffff 24 800] ------- [36:255 -1:255 32 0] 
r 0.130896573 _8_ RTR  --- 3 message 32 [0 ffffffff 24 800] ------- [36:255 -1:255 32 0] 
r 0.130896606 _35_ RTR  --- 3 message 32 [0 ffffffff 24 800] ------- [36:255 -1:255 32 0] 
r 0.130896609 _6_ RTR  --- 3 message 32 [0 ffffffff 24 800] ------- [36:255 -1:255 32 0] 
r 0.130896613 _26_ RTR  --- 3 message 32 [0 ffffffff 24 800] ------- [36:255 -1:255 32 0] 
r 0.130896616 _32_ RTR  --- 3 message 32 [0 ffffffff 24 800] ------- [36:255 -1:255 32 0] 
r 0.130896620 _2_ RTR  --- 3 message 32 [0 ffffffff 24 800] ------- [36:255 -1:255 32 0] 
r 0.130896633 _27_ RTR  --- 3 message 32 [0 ffffffff 24 800] ------- [36:255 -1:255 32 0] 
r 0.130896663 _23_ RTR  --- 3 message 32 [0 ffffffff 24 800] ------- [36:255 -1:255 32 0] 
r 0.130896717 _37_ RTR  --- 3 message 32 [0 ffffffff 24 800] ------- [36:255 -1:255 32 0] 
r 0.130896740 _24_ RTR  --- 3 message 32 [0 ffffffff 24 800] ------- [36:255 -1:255 32 0] 
r 0.130896760 _5_ RTR  --- 3 message 32 [0 ffffffff 24 800] ------- [36:255 -1:255 32 0] 
r 0.130896772 _15_ RTR  --- 3 message 32 [0 ffffffff 24 800] ------- [36:255 -1:255 32 0] 
r 0.130896799 _20_ RTR  --- 3 message 32 [0 ffffffff 24 800] ------- [36:255 -1:255 32 0] 
r 0.130896801 _18_ RTR  --- 3 message 32 [0 ffffffff 24 800] ------- [36:255 -1:255 32 0] 
r 0.130896811 _21_ RTR  --- 3 message 32 [0 ffffffff 24 800] ------- [36:255 -1:255 32 0] 
r 0.130896814 _4_ RTR  --- 3 message 32 [0 ffffffff 24 800] ------- [36:255 -1:255 32 0] 
r 0.130896860 _25_ RTR  --- 3 message 32 [0 ffffffff 24 800] ------- [36:255 -1:255 32 0] 
r 0.130896886 _28_ RTR  --- 3 message 32 [0 ffffffff 24 800] ------- [36:255 -1:255 32 0] 
r 0.133372989 _4_ RTR  --- 4 message 32 [0 ffffffff 1c 800] ------- [28:255 -1:255 32 0] 
r 0.133373012 _25_ RTR  --- 4 message 32 [0 ffffffff 1c 800] ------- [28:255 -1:255 32 0] 
r 0.133373014 _18_ RTR  --- 4 message 32 [0 ffffffff 1c 800] ------- [28:255 -1:255 32 0] 
r 0.133373028 _15_ RTR  --- 4 message 32 [0 ffffffff 1c 800] ------- [28:255 -1:255 32 0] 
r 0.133373060 _24_ RTR  --- 4 message 32 [0 ffffffff 1c 800] ------- [28:255 -1:255 32 0] 
r 0.133373149 _20_ RTR  --- 4 message 32 [0 ffffffff 1c 800] ------- [28:255 -1:255 32 0] 
r 0.133373207 _21_ RTR  --- 4 message 32 [0 ffffffff 1c 800] ------- [28:255 -1:255 32 0] 
r 0.133373225 _23_ RTR  --- 4 message 32 [0 ffffffff 1c 800] ------- [28:255 -1:255 32 0] 
r 0.133373228 _27_ RTR  --- 4 message 32 [0 ffffffff 1c 800] ------- [28:255 -1:255 32 0] 
r 0.133373254 _14_ RTR  --- 4 message 32 [0 ffffffff 1c 800] ------- [28:255 -1:255 32 0] 
r 0.133373276 _26_ RTR  --- 4 message 32 [0 ffffffff 1c 800] ------- [28:255 -1:255 32 0] 
r 0.133373285 _3_ RTR  --- 4 message 32 [0 ffffffff 1c 800] ------- [28:255 -1:255 32 0] 
r 0.133373337 _32_ RTR  --- 4 message 32 [0 ffffffff 1c 800] ------- [28:255 -1:255 32 0] 
r 0.133373342 _6_ RTR  --- 4 message 32 [0 ffffffff 1c 800] ------- [28:255 -1:255 32 0] 
r 0.133373381 _0_ RTR  --- 4 message 32 [0 ffffffff 1c 800] ------- [28:255 -1:255 32 0] 
r 0.133373418 _2_ RTR  --- 4 message 32 [0 ffffffff 1c 800] ------- [28:255 -1:255 32 0] 
r 0.133373425 _5_ RTR  --- 4 message 32 [0 ffffffff 1c 800] ------- [28:255 -1:255 32 0] 
r 0.133373457 _37_ RTR  --- 4 message 32 [0 ffffffff 1c 800] ------- [28:255 -1:255 32 0] 
r 0.133373480 _17_ RTR  --- 4 message 32 [0 ffffffff 1c 800] ------- [28:255 -1:255 32 0] 
r 0.133373480 _11_ RTR  --- 4 message 32 [0 ffffffff 1c 800] ------- [28:255 -1:255 32 0] 
r 0.133373546 _12_ RTR  --- 4 message 32 [0 ffffffff 1c 800] ------- [28:255 -1:255 32 0] 
r 0.133373548 _19_ RTR  --- 4 message 32 [0 ffffffff 1c 800] ------- [28:255 -1:255 32 0] 
r 0.133373564 _31_ RTR  --- 4 message 32 [0 ffffffff 1c 800] ------- [28:255 -1:255 32 0] 
r 0.133373624 _8_ RTR  --- 4 message 32 [0 ffffffff 1c 800] ------- [28:255 -1:255 32 0] 
r 0.133373644 _35_ RTR  --- 4 message 32 [0 ffffffff 1c 800] ------- [28:255 -1:255 32 0] 
r 0.133373647 _13_ RTR  --- 4 message 32 [0 ffffffff 1c 800] ------- [28:255 -1:255 32 0] 
r 0.133373655 _22_ RTR  --- 4 message 32 [0 ffffffff 1c 800] ------- [28:255 -1:255 32 0] 
r 0.133373662 _7_ RTR  --- 4 message 32 [0 ffffffff 1c 800] ------- [28:255 -1:255 32 0] 
r 0.133373675 _9_ RTR  --- 4 message 32 [0 ffffffff 1c 800] ------- [28:255 -1:255 32 0] 
r 0.133373676 _29_ RTR  --- 4 message 32 [0 ffffffff 1c 800] ------- [28:255 -1:255 32 0] 
r 0.133373691 _10_ RTR  --- 4 message 32 [0 ffffffff 1c 800] ------- [28:255 -1:255 32 0] 
r 0.133373712 _30_ RTR  --- 4 message 32 [0 ffffffff 1c 800] ------- [28:255 -1:255 32 0] 
r 0.133373715 _36_ RTR  --- 4 message 32 [0 ffffffff 1c 800] ------- [28:255 -1:255 32 0] 
r 0.133373718 _34_ RTR  --- 4 message 32 [0 ffffffff 1c 800] ------- [28:255 -1:255 32 0] 
s 0.247164037 _15_ RTR  --- 5 message 32 [0 0 0 0] ------- [15:255 -1:255 32 0] 
r 0.250574070 _24_ RTR  --- 5 message 32 [0 ffffffff f 800] ------- [15:255 -1:255 32 0] 
r 0.250574073 _18_ RTR  --- 5 message 32 [0 ffffffff f 800] ------- [15:255 -1:255 32 0] 
r 0.250574079 _4_ RTR  --- 5 message 32 [0 ffffffff f 800] ------- [15:255 -1:255 32 0] 
r 0.250574160 _28_ RTR  --- 5 message 32 [0 ffffffff f 800] ------- [15:255 -1:255 32 0] 
r 0.250574203 _25_ RTR  --- 5 message 32 [0 ffffffff f 800] ------- [15:255 -1:255 32 0] 
r 0.250574208 _20_ RTR  --- 5 message 32 [0 ffffffff f 800] ------- [15:255 -1:255 32 0] 
r 0.250574240 _27_ RTR  --- 5 message 32 [0 ffffffff f 800] ------- [15:255 -1:255 32 0] 
r 0.250574268 _21_ RTR  --- 5 message 32 [0 ffffffff f 800] ------- [15:255 -1:255 32 0] 
r 0.250574299 _14_ RTR  --- 5 message 32 [0 ffffffff f 800] ------- [15:255 -1:255 32 0] 
r 0.250574311 _23_ RTR  --- 5 message 32 [0 ffffffff f 800] ------- [15:255 -1:255 32 0] 
r 0.250574313 _3_ RTR  --- 5 message 32 [0 ffffffff f 800] ------- [15:255 -1:255 32 0] 
r 0.250574350 _26_ RTR  --- 5 message 32 [0 ffffffff f 800] ------- [15:255 -1:255 32 0] 
r 0.250574410 _0_ RTR  --- 5 message 32 [0 ffffffff f 800] ------- [15:255 -1:255 32 0] 
r 0.250574419 _32_ RTR  --- 5 message 32 [0 ffffffff f 800] ------- [15:255 -1:255 32 0] 
r 0.250574422 _6_ RTR  --- 5 message 32 [0 ffffffff f 800] ------- [15:255 -1:255 32 0] 
r 0.250574438 _2_ RTR  --- 5 message 32 [0 ffffffff f 800] ------- [15:255 -1:255 32 0] 
r 0.250574465 _5_ RTR  --- 5 message 32 [0 ffffffff f 800] ------- [15:255 -1:255 32 0] 
r 0.250574489 _37_ RTR  --- 5 message 32 [0 ffffffff f 800] ------- [15:255 -1:255 32 0] 
r 0.250574490 _11_ RTR  --- 5 message 32 [0 ffffffff f 800] ------- [15:255 -1:255 32 0] 
r 0.250574501 _17_ RTR  --- 5 message 32 [0 ffffffff f 800] ------- [15:255 -1:255 32 0] 
r 0.250574559 _12_ RTR  --- 5 message 32 [0 ffffffff f 800] ------- [15:255 -1:255 32 0] 
r 0.250574615 _19_ RTR  --- 5 message 32 [0 ffffffff f 800] ------- [15:255 -1:255 32 0] 
r 0.250574629 _31_ RTR  --- 5 message 32 [0 ffffffff f 800] ------- [15:255 -1:255 32 0] 
r 0.250574639 _8_ RTR  --- 5 message 32 [0 ffffffff f 800] ------- [15:255 -1:255 32 0] 
r 0.250574656 _13_ RTR  --- 5 message 32 [0 ffffffff f 800] ------- [15:255 -1:255 32 0] 
r 0.250574662 _35_ RTR  --- 5 message 32 [0 ffffffff f 800] ------- [15:255 -1:255 32 0] 
r 0.250574672 _7_ RTR  --- 5 message 32 [0 ffffffff f 800] ------- [15:255 -1:255 32 0] 
r 0.250574684 _9_ RTR  --- 5 message 32 [0 ffffffff f 800] ------- [15:255 -1:255 32 0] 
r 0.250574690 _29_ RTR  --- 5 message 32 [0 ffffffff f 800] ------- [15:255 -1:255 32 0] 
r 0.250574700 _22_ RTR  --- 5 message 32 [0 ffffffff f 800] ------- [15:255 -1:255 32 0] 
r 0.250574727 _30_ RTR  --- 5 message 32 [0 ffffffff f 800] ------- [15:255 -1:255 32 0] 
r 0.250574728 _34_ RTR  --- 5 message 32 [0 ffffffff f 800] ------- [15:255 -1:255 32 0] 
r 0.250574733 _36_ RTR  --- 5 message 32 [0 ffffffff f 800] ------- [15:255 -1:255 32 0] 
r 0.250574740 _10_ RTR  --- 5 message 32 [0 ffffffff f 800] ------- [15:255 -1:255 32 0] 
r 0.250574783 _38_ RTR  --- 5 message 32 [0 ffffffff f 800] ------- [15:255 -1:255 32 0] 
r 0.250574801 _1_ RTR  --- 5 message 32 [0 ffffffff f 800] ------- [15:255 -1:255 32 0] 
r 0.250574841 _39_ RTR  --- 5 message 32 [0 ffffffff f 800] ------- [15:255 -1:255 32 0] 
r 0.250574859 _33_ RTR  --- 5 message 32 [0 ffffffff f 800] ------- [15:255 -1:255 32 0] 
s 0.321822596 _26_ RTR  --- 6 message 32 [0 0 0 0] ------- [26:255 -1:255 32 0] 
r 0.324272654 _23_ RTR  --- 6 message 32 [0 ffffffff 1a 800] ------- [26:255 -1:255 32 0] 
r 0.324272667 _32_ RTR  --- 6 message 32 [0 ffffffff 1a 800] ------- [26:255 -1:255 32 0] 
r 0.324272670 _6_ RTR  --- 6 message 32 [0 ffffffff 1a 800] ------- [26:255 -1:255 32 0] 
r 0.324272700 _14_ RTR  --- 6 message 32 [0 ffffffff 1a 800] ------- [26:255 -1:255 32 0] 
r 0.324272767 _3_ RTR  --- 6 message 32 [0 ffffffff 1a 800] ------- [26:255 -1:255 32 0] 
r 0.324272802 _0_ RTR  --- 6 message 32 [0 ffffffff 1a 800] ------- [26:255 -1:255 32 0] 
r 0.324272893 _25_ RTR  --- 6 message 32 [0 ffffffff 1a 800] ------- [26:255 -1:255 32 0] 
r 0.324272893 _24_ RTR  --- 6 message 32 [0 ffffffff 1a 800] ------- [26:255 -1:255 32 0] 
r 0.324272910 _15_ RTR  --- 6 message 32 [0 ffffffff 1a 800] ------- [26:255 -1:255 32 0] 
r 0.324272915 _17_ RTR  --- 6 message 32 [0 ffffffff 1a 800] ------- [26:255 -1:255 32 0] 
r 0.324272938 _4_ RTR  --- 6 message 32 [0 ffffffff 1a 800] ------- [26:255 -1:255 32 0] 
r 0.324272945 _18_ RTR  --- 6 message 32 [0 ffffffff 1a 800] ------- [26:255 -1:255 32 0] 
r 0.324272964 _27_ RTR  --- 6 message 32 [0 ffffffff 1a 800] ------- [26:255 -1:255 32 0] 
r 0.324272968 _28_ RTR  --- 6 message 32 [0 ffffffff 1a 800] ------- [26:255 -1:255 32 0] 
r 0.324272990 _22_ RTR  --- 6 message 32 [0 ffffffff 1a 800] ------- [26:255 -1:255 32 0] 
r 0.324273020 _10_ RTR  --- 6 message 32 [0 ffffffff 1a 800] ------- [26:255 -1:255 32 0] 
r 0.324273054 _20_ RTR  --- 6 message 32 [0 ffffffff 1a 800] ------- [26:255 -1:255 32 0] 
r 0.324273078 _11_ RTR  --- 6 message 32 [0 ffffffff 1a 800] ------- [26:255 -1:255 32 0] 
r 0.324273106 _21_ RTR  --- 6 message 32 [0 ffffffff 1a 800] ------- [26:255 -1:255 32 0] 
r 0.324273133 _36_ RTR  --- 6 message 32 [0 ffffffff 1a 800] ------- [26:255 -1:255 32 0] 
r 0.324273142 _2_ RTR  --- 6 message 32 [0 ffffffff 1a 800] ------- [26:255 -1:255 32 0] 
r 0.324273150 _30_ RTR  --- 6 message 32 [0 ffffffff 1a 800] ------- [26:255 -1:255 32 0] 
r 0.324273188 _12_ RTR  --- 6 message 32 [0 ffffffff 1a 800] ------- [26:255 -1:255 32 0] 
r 0.324273206 _13_ RTR  --- 6 message 32 [0 ffffffff 1a 800] ------- [26:255 -1:255 32 0] 
r 0.324273233 _9_ RTR  --- 6 message 32 [0 ffffffff 1a 800] ------- [26:255 -1:255 32 0] 
r 0.324273234 _37_ RTR  --- 6 message 32 [0 ffffffff 1a 800] ------- [26:255 -1:255 32 0] 
r 0.324273235 _5_ RTR  --- 6 message 32 [0 ffffffff 1a 800] ------- [26:255 -1:255 32 0] 
r 0.324273256 _34_ RTR  --- 6 message 32 [0 ffffffff 1a 800] ------- [26:255 -1:255 32 0] 
r 0.324273264 _7_ RTR  --- 6 message 32 [0 ffffffff 1a 800] ------- [26:255 -1:255 32 0] 
r 0.324273285 _8_ RTR  --- 6 message 32 [0 ffffffff 1a 800] ------- [26:255 -1:255 32 0] 
r 0.324273317 _29_ RTR  --- 6 message 32 [0 ffffffff 1a 800] ------- [26:255 -1:255 32 0] 
r 0.324273317 _35_ RTR  --- 6 message 32 [0 ffffffff 1a 800] ------- [26:255 -1:255 32 0] 
r 0.324273323 _38_ RTR  --- 6 message 32 [0 ffffffff 1a 800] ------- [26:255 -1:255 32 0] 
r 0.324273366 _33_ RTR  --- 6 message 32 [0 ffffffff 1a 800] ------- [26:255 -1:255 32 0] 
r 0.324273374 _1_ RTR  --- 6 message 32 [0 ffffffff 1a 800] ------- [26:255 -1:255 32 0] 
r 0.324273384 _39_ RTR  --- 6 message 32 [0 ffffffff 1a 800] ------- [26:255 -1:255 32 0] 
r 0.324273409 _16_ RTR  --- 6 message 32 [0 ffffffff 1a 800] ------- [26:255 -1:255 32 0] 
r 0.324273425 _19_ RTR  --- 6 message 32 [0 ffffffff 1a 800] ------- [26:255 -1:255 32 0] 
s 0.349191800 _3_ RTR  --- 7 message 32 [0 0 0 0] ------- [3:255 -1:255 32 0] 
r 0.352921871 _14_ RTR  --- 7 message 32 [0 ffffffff 3 800] ------- [3:255 -1:255 32 0] 
r 0.352921897 _0_ RTR  --- 7 message 32 [0 ffffffff 3 800] ------- [3:255 -1:255 32 0] 
r 0.352921971 _26_ RTR  --- 7 message 32 [0 ffffffff 3 800] ------- [3:255 -1:255 32 0] 
r 0.352921993 _23_ RTR  --- 7 message 32 [0 ffffffff 3 800] ------- [3:255 -1:255 32 0] 
r 0.352921999 _17_ RTR  --- 7 message 32 [0 ffffffff 3 800] ------- [3:255 -1:255 32 0] 
r 0.352922024 _6_ RTR  --- 7 message 32 [0 ffffffff 3 800] ------- [3:255 -1:255 32 0] 
r 0.352922026 _32_ RTR  --- 7 message 32 [0 ffffffff 3 800] ------- [3:255 -1:255 32 0] 
r 0.352922031 _27_ RTR  --- 7 message 32 [0 ffffffff 3 800] ------- [3:255 -1:255 32 0] 
r 0.352922047 _24_ RTR  --- 7 message 32 [0 ffffffff 3 800] ------- [3:255 -1:255 32 0] 
r 0.352922077 _15_ RTR  --- 7 message 32 [0 ffffffff 3 800] ------- [3:255 -1:255 32 0] 
r 0.352922111 _18_ RTR  --- 7 message 32 [0 ffffffff 3 800] ------- [3:255 -1:255 32 0] 
r 0.352922112 _11_ RTR  --- 7 message 32 [0 ffffffff 3 800] ------- [3:255 -1:255 32 0] 
r 0.352922117 _4_ RTR  --- 7 message 32 [0 ffffffff 3 800] ------- [3:255 -1:255 32 0] 
r 0.352922151 _25_ RTR  --- 7 message 32 [0 ffffffff 3 800] ------- [3:255 -1:255 32 0] 
r 0.352922166 _20_ RTR  --- 7 message 32 [0 ffffffff 3 800] ------- [3:255 -1:255 32 0] 
r 0.352922181 _28_ RTR  --- 7 message 32 [0 ffffffff 3 800] ------- [3:255 -1:255 32 0] 
r 0.352922184 _2_ RTR  --- 7 message 32 [0 ffffffff 3 800] ------- [3:255 -1:255 32 0] 
r 0.352922195 _22_ RTR  --- 7 message 32 [0 ffffffff 3 800] ------- [3:255 -1:255 32 0] 
r 0.352922204 _21_ RTR  --- 7 message 32 [0 ffffffff 3 800] ------- [3:255 -1:255 32 0] 
r 0.352922222 _12_ RTR  --- 7 message 32 [0 ffffffff 3 800] ------- [3:255 -1:255 32 0] 
r 0.352922235 _36_ RTR  --- 7 message 32 [0 ffffffff 3 800] ------- [3:255 -1:255 32 0] 
r 0.352922238 _10_ RTR  --- 7 message 32 [0 ffffffff 3 800] ------- [3:255 -1:255 32 0] 
r 0.352922238 _30_ RTR  --- 7 message 32 [0 ffffffff 3 800] ------- [3:255 -1:255 32 0] 
r 0.352922248 _13_ RTR  --- 7 message 32 [0 ffffffff 3 800] ------- [3:255 -1:255 32 0] 
r 0.352922276 _9_ RTR  --- 7 message 32 [0 ffffffff 3 800] ------- [3:255 -1:255 32 0] 
r 0.352922281 _37_ RTR  --- 7 message 32 [0 ffffffff 3 800] ------- [3:255 -1:255 32 0] 
r 0.352922290 _5_ RTR  --- 7 message 32 [0 ffffffff 3 800] ------- [3:255 -1:255 32 0] 
r 0.352922300 _7_ RTR  --- 7 message 32 [0 ffffffff 3 800] ------- [3:255 -1:255 32 0] 
r 0.352922303 _34_ RTR  --- 7 message 32 [0 ffffffff 3 800] ------- [3:255 -1:255 32 0] 
r 0.352922318 _8_ RTR  --- 7 message 32 [0 ffffffff 3 800] ------- [3:255 -1:255 32 0] 
r 0.352922350 _29_ RTR  --- 7 message 32 [0 ffffffff 3 800] ------- [3:255 -1:255 32 0] 
r 0.352922351 _35_ RTR  --- 7 message 32 [0 ffffffff 3 800] ------- [3:255 -1:255 32 0] 
r 0.352922369 _38_ RTR  --- 7 message 32 [0 ffffffff 3 800] ------- [3:255 -1:255 32 0] 
r 0.352922414 _1_ RTR  --- 7 message 32 [0 ffffffff 3 800] ------- [3:255 -1:255 32 0] 
r 0.352922422 _33_ RTR  --- 7 message 32 [0 ffffffff 3 800] ------- [3:255 -1:255 32 0] 
r 0.352922430 _39_ RTR  --- 7 message 32 [0 ffffffff 3 800] ------- [3:255 -1:255 32 0] 
r 0.352922468 _16_ RTR  --- 7 message 32 [0 ffffffff 3 800] ------- [3:255 -1:255 32 0] 
r 0.352922490 _19_ RTR  --- 7 message 32 [0 ffffffff 3 800] ------- [3:255 -1:255 32 0] 
r 0.352922496 _31_ RTR  --- 7 message 32 [0 ffffffff 3 800] ------- [3:255 -1:255 32 0] 
s 0.356017125 _29_ RTR  --- 8 message 32 [0 0 0 0] ------- [29:255 -1:255 32 0] 
r 0.359427185 _8_ RTR  --- 8 message 32 [0 ffffffff 1d 800] ------- [29:255 -1:255 32 0] 
r 0.359427192 _35_ RTR  --- 8 message 32 [0 ffffffff 1d 800] ------- [29:255 -1:255 32 0] 
r 0.359427208 _7_ RTR  --- 8 message 32 [0 ffffffff 1d 800] ------- [29:255 -1:255 32 0] 
r 0.359427259 _12_ RTR  --- 8 message 32 [0 ffffffff 1d 800] ------- [29:255 -1:255 32 0] 
r 0.359427277 _1_ RTR  --- 8 message 32 [0 ffffffff 1d 800] ------- [29:255 -1:255 32 0] 
r 0.359427295 _9_ RTR  --- 8 message 32 [0 ffffffff 1d 800] ------- [29:255 -1:255 32 0] 
r 0.359427301 _13_ RTR  --- 8 message 32 [0 ffffffff 1d 800] ------- [29:255 -1:255 32 0] 
r 0.359427328 _38_ RTR  --- 8 message 32 [0 ffffffff 1d 800] ------- [29:255 -1:255 32 0] 
r 0.359427339 _34_ RTR  --- 8 message 32 [0 ffffffff 1d 800] ------- [29:255 -1:255 32 0] 
r 0.359427352 _39_ RTR  --- 8 message 32 [0 ffffffff 1d 800] ------- [29:255 -1:255 32 0] 
r 0.359427363 _11_ RTR  --- 8 message 32 [0 ffffffff 1d 800] ------- [29:255 -1:255 32 0] 
r 0.359427392 _2_ RTR  --- 8 message 32 [0 ffffffff 1d 800] ------- [29:255 -1:255 32 0] 
r 0.359427416 _37_ RTR  --- 8 message 32 [0 ffffffff 1d 800] ------- [29:255 -1:255 32 0] 
r 0.359427426 _33_ RTR  --- 8 message 32 [0 ffffffff 1d 800] ------- [29:255 -1:255 32 0] 
r 0.359427466 _16_ RTR  --- 8 message 32 [0 ffffffff 1d 800] ------- [29:255 -1:255 32 0] 
r 0.359427472 _5_ RTR  --- 8 message 32 [0 ffffffff 1d 800] ------- [29:255 -1:255 32 0] 
r 0.359427557 _30_ RTR  --- 8 message 32 [0 ffffffff 1d 800] ------- [29:255 -1:255 32 0] 
r 0.359427575 _27_ RTR  --- 8 message 32 [0 ffffffff 1d 800] ------- [29:255 -1:255 32 0] 
r 0.359427593 _31_ RTR  --- 8 message 32 [0 ffffffff 1d 800] ------- [29:255 -1:255 32 0] 
r 0.359427594 _17_ RTR  --- 8 message 32 [0 ffffffff 1d 800] ------- [29:255 -1:255 32 0] 
r 0.359427605 _36_ RTR  --- 8 message 32 [0 ffffffff 1d 800] ------- [29:255 -1:255 32 0] 
r 0.359427605 _19_ RTR  --- 8 message 32 [0 ffffffff 1d 800] ------- [29:255 -1:255 32 0] 
r 0.359427656 _21_ RTR  --- 8 message 32 [0 ffffffff 1d 800] ------- [29:255 -1:255 32 0] 
r 0.359427665 _0_ RTR  --- 8 message 32 [0 ffffffff 1d 800] ------- [29:255 -1:255 32 0] 
r 0.359427675 _3_ RTR  --- 8 message 32 [0 ffffffff 1d 800] ------- [29:255 -1:255 32 0] 
r 0.359427686 _20_ RTR  --- 8 message 32 [0 ffffffff 1d 800] ------- [29:255 -1:255 32 0] 
r 0.359427745 _14_ RTR  --- 8 message 32 [0 ffffffff 1d 800] ------- [29:255 -1:255 32 0] 
r 0.359427751 _24_ RTR  --- 8 message 32 [0 ffffffff 1d 800] ------- [29:255 -1:255 32 0] 
r 0.359427779 _15_ RTR  --- 8 message 32 [0 ffffffff 1d 800] ------- [29:255 -1:255 32 0] 
r 0.359427787 _18_ RTR  --- 8 message 32 [0 ffffffff 1d 800] ------- [29:255 -1:255 32 0] 
r 0.359427812 _4_ RTR  --- 8 message 32 [0 ffffffff 1d 800] ------- [29:255 -1:255 32 0] 
r 0.359427845 _26_ RTR  --- 8 message 32 [0 ffffffff 1d 800] ------- [29:255 -1:255 32 0] 