s 0.108286928 _8_ RTR  --- 0 message 32 [0 0 0 0] ------- [8:255 -1:255 32 0] 
r 0.112337122 _12_ RTR  --- 0 message 32 [0 ffffffff 8 800] ------- [8:255 -1:255 32 0] 
r 0.112337151 _7_ RTR  --- 0 message 32 [0 ffffffff 8 800] ------- [8:255 -1:255 32 0] 
r 0.112337316 _13_ RTR  --- 0 message 32 [0 ffffffff 8 800] ------- [8:255 -1:255 32 0] 
r 0.112337322 _9_ RTR  --- 0 message 32 [0 ffffffff 8 800] ------- [8:255 -1:255 32 0] 
r 0.112337345 _1_ RTR  --- 0 message 32 [0 ffffffff 8 800] ------- [8:255 -1:255 32 0] 
r 0.112337346 _2_ RTR  --- 0 message 32 [0 ffffffff 8 800] ------- [8:255 -1:255 32 0] 
r 0.112337347 _11_ RTR  --- 0 message 32 [0 ffffffff 8 800] ------- [8:255 -1:255 32 0] 
r 0.112337507 _5_ RTR  --- 0 message 32 [0 ffffffff 8 800] ------- [8:255 -1:255 32 0] 
r 0.112337715 _16_ RTR  --- 0 message 32 [0 ffffffff 8 800] ------- [8:255 -1:255 32 0] 
s 0.184556115 _13_ RTR  --- 1 message 32 [0 0 0 0] ------- [13:255 -1:255 32 0] 
r 0.187966170 _9_ RTR  --- 1 message 32 [0 ffffffff d 800] ------- [13:255 -1:255 32 0] 
r 0.187966299 _7_ RTR  --- 1 message 32 [0 ffffffff d 800] ------- [13:255 -1:255 32 0] 
r 0.187966433 _12_ RTR  --- 1 message 32 [0 ffffffff d 800] ------- [13:255 -1:255 32 0] 
r 0.187966450 _11_ RTR  --- 1 message 32 [0 ffffffff d 800] ------- [13:255 -1:255 32 0] 
r 0.187966453 _1_ RTR  --- 1 message 32 [0 ffffffff d 800] ------- [13:255 -1:255 32 0] 
r 0.187966502 _8_ RTR  --- 1 message 32 [0 ffffffff d 800] ------- [13:255 -1:255 32 0] 
r 0.187966634 _16_ RTR  --- 1 message 32 [0 ffffffff d 800] ------- [13:255 -1:255 32 0] 
r 0.187966729 _2_ RTR  --- 1 message 32 [0 ffffffff d 800] ------- [13:255 -1:255 32 0] 
r 0.187966755 _17_ RTR  --- 1 message 32 [0 ffffffff d 800] ------- [13:255 -1:255 32 0] 
r 0.187966937 _0_ RTR  --- 1 message 32 [0 ffffffff d 800] ------- [13:255 -1:255 32 0] 
s 0.189349091 _6_ RTR  --- 2 message 32 [0 0 0 0] ------- [6:255 -1:255 32 0] 
r 0.192439421 _14_ RTR  --- 2 message 32 [0 ffffffff 6 800] ------- [6:255 -1:255 32 0] 
r 0.192439539 _3_ RTR  --- 2 message 32 [0 ffffffff 6 800] ------- [6:255 -1:255 32 0] 
r 0.192439552 _0_ RTR  --- 2 message 32 [0 ffffffff 6 800] ------- [6:255 -1:255 32 0] 
r 0.192439758 _17_ RTR  --- 2 message 32 [0 ffffffff 6 800] ------- [6:255 -1:255 32 0] 
r 0.192439843 _10_ RTR  --- 2 message 32 [0 ffffffff 6 800] ------- [6:255 -1:255 32 0] 
r 0.192439861 _15_ RTR  --- 2 message 32 [0 ffffffff 6 800] ------- [6:255 -1:255 32 0] 
r 0.192439919 _4_ RTR  --- 2 message 32 [0 ffffffff 6 800] ------- [6:255 -1:255 32 0] 
s 0.361191738 _4_ RTR  --- 3 message 32 [0 0 0 0] ------- [4:255 -1:255 32 0] 
r 0.365241793 _18_ RTR  --- 3 message 32 [0 ffffffff 4 800] ------- [4:255 -1:255 32 0] 
r 0.365241825 _15_ RTR  --- 3 message 32 [0 ffffffff 4 800] ------- [4:255 -1:255 32 0] 
r 0.365242335 _14_ RTR  --- 3 message 32 [0 ffffffff 4 800] ------- [4:255 -1:255 32 0] 
r 0.365242372 _3_ RTR  --- 3 message 32 [0 ffffffff 4 800] ------- [4:255 -1:255 32 0] 
r 0.365242566 _6_ RTR  --- 3 message 32 [0 ffffffff 4 800] ------- [4:255 -1:255 32 0] 
r 0.365242569 _0_ RTR  --- 3 message 32 [0 ffffffff 4 800] ------- [4:255 -1:255 32 0] 
s 0.416790201 _2_ RTR  --- 4 message 32 [0 0 0 0] ------- [2:255 -1:255 32 0] 
r 0.420200483 _5_ RTR  --- 4 message 32 [0 ffffffff 2 800] ------- [2:255 -1:255 32 0] 
r 0.420200512 _12_ RTR  --- 4 message 32 [0 ffffffff 2 800] ------- [2:255 -1:255 32 0] 
r 0.420200559 _11_ RTR  --- 4 message 32 [0 ffffffff 2 800] ------- [2:255 -1:255 32 0] 
r 0.420200618 _8_ RTR  --- 4 message 32 [0 ffffffff 2 800] ------- [2:255 -1:255 32 0] 
r 0.420200752 _7_ RTR  --- 4 message 32 [0 ffffffff 2 800] ------- [2:255 -1:255 32 0] 
r 0.420200815 _13_ RTR  --- 4 message 32 [0 ffffffff 2 800] ------- [2:255 -1:255 32 0] 
r 0.420200855 _9_ RTR  --- 4 message 32 [0 ffffffff 2 800] ------- [2:255 -1:255 32 0] 
r 0.420200887 _19_ RTR  --- 4 message 32 [0 ffffffff 2 800] ------- [2:255 -1:255 32 0] 
r 0.420200968 _3_ RTR  --- 4 message 32 [0 ffffffff 2 800] ------- [2:255 -1:255 32 0] 
r 0.420201004 _1_ RTR  --- 4 message 32 [0 ffffffff 2 800] ------- [2:255 -1:255 32 0] 
r 0.420201007 _15_ RTR  --- 4 message 32 [0 ffffffff 2 800] ------- [2:255 -1:255 32 0] 
r 0.420201011 _18_ RTR  --- 4 message 32 [0 ffffffff 2 800] ------- [2:255 -1:255 32 0] 
r 0.420201014 _17_ RTR  --- 4 message 32 [0 ffffffff 2 800] ------- [2:255 -1:255 32 0] 
s 0.842768025 _12_ RTR  --- 5 message 32 [0 0 0 0] ------- [12:255 -1:255 32 0] 
r 0.845218218 _8_ RTR  --- 5 message 32 [0 ffffffff c 800] ------- [12:255 -1:255 32 0] 
r 0.845218253 _11_ RTR  --- 5 message 32 [0 ffffffff c 800] ------- [12:255 -1:255 32 0] 
r 0.845218267 _7_ RTR  --- 5 message 32 [0 ffffffff c 800] ------- [12:255 -1:255 32 0] 
r 0.845218336 _2_ RTR  --- 5 message 32 [0 ffffffff c 800] ------- [12:255 -1:255 32 0] 
r 0.845218343 _13_ RTR  --- 5 message 32 [0 ffffffff c 800] ------- [12:255 -1:255 32 0] 
r 0.845218375 _9_ RTR  --- 5 message 32 [0 ffffffff c 800] ------- [12:255 -1:255 32 0] 
r 0.845218526 _1_ RTR  --- 5 message 32 [0 ffffffff c 800] ------- [12:255 -1:255 32 0] 
r 0.845218575 _5_ RTR  --- 5 message 32 [0 ffffffff c 800] ------- [12:255 -1:255 32 0] 
r 0.845218755 _17_ RTR  --- 5 message 32 [0 ffffffff c 800] ------- [12:255 -1:255 32 0] 
r 0.845218834 _16_ RTR  --- 5 message 32 [0 ffffffff c 800] ------- [12:255 -1:255 32 0] 
s 0.983476910 _7_ RTR  --- 6 message 32 [0 0 0 0] ------- [7:255 -1:255 32 0] 
r 0.988167086 _9_ RTR  --- 6 message 32 [0 ffffffff 7 800] ------- [7:255 -1:255 32 0] 
r 0.988167094 _13_ RTR  --- 6 message 32 [0 ffffffff 7 800] ------- [7:255 -1:255 32 0] 
r 0.988167132 _8_ RTR  --- 6 message 32 [0 ffffffff 7 800] ------- [7:255 -1:255 32 0] 
r 0.988167152 _12_ RTR  --- 6 message 32 [0 ffffffff 7 800] ------- [7:255 -1:255 32 0] 
r 0.988167172 _1_ RTR  --- 6 message 32 [0 ffffffff 7 800] ------- [7:255 -1:255 32 0] 
r 0.988167291 _11_ RTR  --- 6 message 32 [0 ffffffff 7 800] ------- [7:255 -1:255 32 0] 
r 0.988167460 _2_ RTR  --- 6 message 32 [0 ffffffff 7 800] ------- [7:255 -1:255 32 0] 
r 0.988167491 _16_ RTR  --- 6 message 32 [0 ffffffff 7 800] ------- [7:255 -1:255 32 0] 
r 0.988167677 _5_ RTR  --- 6 message 32 [0 ffffffff 7 800] ------- [7:255 -1:255 32 0] 
r 0.988167704 _17_ RTR  --- 6 message 32 [0 ffffffff 7 800] ------- [7:255 -1:255 32 0] 
M 1.00000 0 (144.00, 302.00, 0.00), (448.00, 283.00), 4.00
M 1.00000 1 (482.00, 385.00, 0.00), (398.00, 443.00), 1.00
M 1.00000 2 (362.00, 176.00, 0.00), (90.00, 185.00), 2.00
M 1.00000 3 (142.00, 243.00, 0.00), (78.00, 106.00), 2.00
M 1.00000 4 (134.00, 53.00, 0.00), (309.00, 155.00), 1.00
M 1.00000 5 (397.00, 99.00, 0.00), (104.00, 88.00), 2.00
M 1.00000 6 (10.00, 268.00, 0.00), (496.00, 187.00), 4.00
M 1.00000 7 (429.00, 327.00, 0.00), (218.00, 9.00), 3.00
M 1.00000 8 (451.00, 264.00, 0.00), (231.00, 23.00), 3.00
M 1.00000 9 (397.00, 369.00, 0.00), (91.00, 247.00), 2.00
M 1.00000 10 (49.00, 490.00, 0.00), (160.00, 317.00), 3.00
M 1.00000 11 (326.00, 277.00, 0.00), (141.00, 408.00), 5.00
M 1.00000 12 (393.00, 264.00, 0.00), (50.00, 80.00), 1.00
M 1.00000 13 (384.00, 359.00, 0.00), (355.00, 324.00), 3.00
M 1.00000 14 (101.00, 229.00, 0.00), (286.00, 188.00), 2.00
M 1.00000 15 (141.00, 78.00, 0.00), (488.00, 262.00), 1.00
M 1.00000 16 (450.00, 500.00, 0.00), (187.00, 350.00), 4.00
M 1.00000 17 (192.00, 351.00, 0.00), (483.00, 491.00), 4.00
M 1.00000 18 (150.00, 57.00, 0.00), (169.00, 121.00), 2.00
M 1.00000 19 (481.00, 8.00, 0.00), (484.00, 85.00), 5.00
s 1.073153639 _10_ RTR  --- 7 message 32 [0 0 0 0] ------- [10:255 -1:255 32 0] 
r 1.075604304 _17_ RTR  --- 7 message 32 [0 ffffffff a 800] ------- [10:255 -1:255 32 0] 
r 1.075604341 _0_ RTR  --- 7 message 32 [0 ffffffff a 800] ------- [10:255 -1:255 32 0] 
r 1.075604390 _6_ RTR  --- 7 message 32 [0 ffffffff a 800] ------- [10:255 -1:255 32 0] 
s 1.106011134 _8_ AGT  --- 8 tcp 40 [0 0 0 0] ------- [8:1 9:15 32 0] [0 0] 0 0
r 1.106011134 _8_ RTR  --- 8 tcp 40 [0 0 0 0] ------- [8:1 9:15 32 0] [0 0] 0 0
s 1.127838335 _1_ AGT  --- 9 tcp 40 [0 0 0 0] ------- [1:0 9:0 32 0] [0 0] 0 0
r 1.127838335 _1_ RTR  --- 9 tcp 40 [0 0 0 0] ------- [1:0 9:0 32 0] [0 0] 0 0
s 1.173810097 _18_ RTR  --- 10 message 32 [0 0 0 0] ------- [18:255 -1:255 32 0] 
r 1.176900152 _4_ RTR  --- 10 message 32 [0 ffffffff 12 800] ------- [18:255 -1:255 32 0] 
r 1.176900173 _15_ RTR  --- 10 message 32 [0 ffffffff 12 800] ------- [18:255 -1:255 32 0] 
r 1.176900692 _14_ RTR  --- 10 message 32 [0 ffffffff 12 800] ------- [18:255 -1:255 32 0] 
r 1.176900716 _3_ RTR  --- 10 message 32 [0 ffffffff 12 800] ------- [18:255 -1:255 32 0] 
r 1.176900906 _2_ RTR  --- 10 message 32 [0 ffffffff 12 800] ------- [18:255 -1:255 32 0] 
r 1.176900913 _0_ RTR  --- 10 message 32 [0 ffffffff 12 800] ------- [18:255 -1:255 32 0] 
s 1.215880198 _4_ AGT  --- 11 tcp 40 [0 0 0 0] ------- [4:0 9:1 32 0] [0 0] 0 0
r 1.215880198 _4_ RTR  --- 11 tcp 40 [0 0 0 0] ------- [4:0 9:1 32 0] [0 0] 0 0
s 1.236192861 _13_ AGT  --- 12 tcp 40 [0 0 0 0] ------- [13:1 9:6 32 0] [0 0] 0 0
r 1.236192861 _13_ RTR  --- 12 tcp 40 [0 0 0 0] ------- [13:1 9:6 32 0] [0 0] 0 0
s 1.280725702 _11_ AGT  --- 13 tcp 40 [0 0 0 0] ------- [11:0 9:4 32 0] [0 0] 0 0
r 1.280725702 _11_ RTR  --- 13 tcp 40 [0 0 0 0] ------- [11:0 9:4 32 0] [0 0] 0 0
s 1.392142830 _3_ RTR  --- 14 message 32 [0 0 0 0] ------- [3:255 -1:255 32 0] 
r 1.395232971 _14_ RTR  --- 14 message 32 [0 ffffffff 3 800] ------- [3:255 -1:255 32 0] 
r 1.395233029 _0_ RTR  --- 14 message 32 [0 ffffffff 3 800] ------- [3:255 -1:255 32 0] 
r 1.395233234 _17_ RTR  --- 14 message 32 [0 ffffffff 3 800] ------- [3:255 -1:255 32 0] 
r 1.395233272 _6_ RTR  --- 14 message 32 [0 ffffffff 3 800] ------- [3:255 -1:255 32 0] 
r 1.395233377 _15_ RTR  --- 14 message 32 [0 ffffffff 3 800] ------- [3:255 -1:255 32 0] 
r 1.395233446 _18_ RTR  --- 14 message 32 [0 ffffffff 3 800] ------- [3:255 -1:255 32 0] 
r 1.395233451 _11_ RTR  --- 14 message 32 [0 ffffffff 3 800] ------- [3:255 -1:255 32 0] 
r 1.395233461 _4_ RTR  --- 14 message 32 [0 ffffffff 3 800] ------- [3:255 -1:255 32 0] 
r 1.395233595 _2_ RTR  --- 14 message 32 [0 ffffffff 3 800] ------- [3:255 -1:255 32 0] 
s 1.459483157 _16_ RTR  --- 15 message 32 [0 0 0 0] ------- [16:255 -1:255 32 0] 
r 1.464173552 _1_ RTR  --- 15 message 32 [0 ffffffff 10 800] ------- [16:255 -1:255 32 0] 
r 1.464173625 _9_ RTR  --- 15 message 32 [0 ffffffff 10 800] ------- [16:255 -1:255 32 0] 
r 1.464173675 _13_ RTR  --- 15 message 32 [0 ffffffff 10 800] ------- [16:255 -1:255 32 0] 
r 1.464173738 _7_ RTR  --- 15 message 32 [0 ffffffff 10 800] ------- [16:255 -1:255 32 0] 
r 1.464173944 _8_ RTR  --- 15 message 32 [0 ffffffff 10 800] ------- [16:255 -1:255 32 0] 
r 1.464173963 _12_ RTR  --- 15 message 32 [0 ffffffff 10 800] ------- [16:255 -1:255 32 0] 
s 1.474516355 _11_ RTR  --- 16 message 32 [0 0 0 0] ------- [11:255 -1:255 32 0] 
s 1.476099489 _19_ RTR  --- 17 message 32 [0 0 0 0] ------- [19:255 -1:255 32 0] 
r 1.478886589 _12_ RTR  --- 16 message 32 [0 ffffffff b 800] ------- [11:255 -1:255 32 0] 
r 1.478886685 _13_ RTR  --- 16 message 32 [0 ffffffff b 800] ------- [11:255 -1:255 32 0] 
r 1.478886718 _2_ RTR  --- 16 message 32 [0 ffffffff b 800] ------- [11:255 -1:255 32 0] 
r 1.478886737 _7_ RTR  --- 16 message 32 [0 ffffffff b 800] ------- [11:255 -1:255 32 0] 
r 1.478886740 _9_ RTR  --- 16 message 32 [0 ffffffff b 800] ------- [11:255 -1:255 32 0] 
r 1.478886778 _8_ RTR  --- 16 message 32 [0 ffffffff b 800] ------- [11:255 -1:255 32 0] 
r 1.478886854 _17_ RTR  --- 16 message 32 [0 ffffffff b 800] ------- [11:255 -1:255 32 0] 
r 1.478886954 _0_ RTR  --- 16 message 32 [0 ffffffff b 800] ------- [11:255 -1:255 32 0] 
r 1.478886975 _3_ RTR  --- 16 message 32 [0 ffffffff b 800] ------- [11:255 -1:255 32 0] 
r 1.478886990 _1_ RTR  --- 16 message 32 [0 ffffffff b 800] ------- [11:255 -1:255 32 0] 
r 1.478886999 _5_ RTR  --- 16 message 32 [0 ffffffff b 800] ------- [11:255 -1:255 32 0] 
r 1.478887114 _14_ RTR  --- 16 message 32 [0 ffffffff b 800] ------- [11:255 -1:255 32 0] 
r 1.483797899 _5_ RTR  --- 17 message 32 [0 ffffffff 13 800] ------- [19:255 -1:255 32 0] 
r 1.483798171 _2_ RTR  --- 17 message 32 [0 ffffffff 13 800] ------- [19:255 -1:255 32 0] 
s 1.485553303 _1_ AGT  --- 18 tcp 40 [0 0 0 0] ------- [1:1 9:5 32 0] [0 0] 0 0
r 1.485553303 _1_ RTR  --- 18 tcp 40 [0 0 0 0] ------- [1:1 9:5 32 0] [0 0] 0 0
s 1.546909413 _1_ RTR  --- 19 message 32 [0 0 0 0] ------- [1:255 -1:255 32 0] 
r 1.551599680 _7_ RTR  --- 19 message 32 [0 ffffffff 1 800] ------- [1:255 -1:255 32 0] 
r 1.551599704 _9_ RTR  --- 19 message 32 [0 ffffffff 1 800] ------- [1:255 -1:255 32 0] 
r 1.551599754 _13_ RTR  --- 19 message 32 [0 ffffffff 1 800] ------- [1:255 -1:255 32 0] 
r 1.551599808 _16_ RTR  --- 19 message 32 [0 ffffffff 1 800] ------- [1:255 -1:255 32 0] 
r 1.551599835 _8_ RTR  --- 19 message 32 [0 ffffffff 1 800] ------- [1:255 -1:255 32 0] 
r 1.551599915 _12_ RTR  --- 19 message 32 [0 ffffffff 1 800] ------- [1:255 -1:255 32 0] 
r 1.551600048 _11_ RTR  --- 19 message 32 [0 ffffffff 1 800] ------- [1:255 -1:255 32 0] 
r 1.551600218 _2_ RTR  --- 19 message 32 [0 ffffffff 1 800] ------- [1:255 -1:255 32 0] 
s 1.638518615 _14_ RTR  --- 20 message 32 [0 0 0 0] ------- [14:255 -1:255 32 0] 
r 1.641608753 _3_ RTR  --- 20 message 32 [0 ffffffff e 800] ------- [14:255 -1:255 32 0] 
r 1.641608900 _0_ RTR  --- 20 message 32 [0 ffffffff e 800] ------- [14:255 -1:255 32 0] 
r 1.641608941 _6_ RTR  --- 20 message 32 [0 ffffffff e 800] ------- [14:255 -1:255 32 0] 
r 1.641609128 _17_ RTR  --- 20 message 32 [0 ffffffff e 800] ------- [14:255 -1:255 32 0] 
r 1.641609134 _15_ RTR  --- 20 message 32 [0 ffffffff e 800] ------- [14:255 -1:255 32 0] 
r 1.641609206 _18_ RTR  --- 20 message 32 [0 ffffffff e 800] ------- [14:255 -1:255 32 0] 
r 1.641609210 _4_ RTR  --- 20 message 32 [0 ffffffff e 800] ------- [14:255 -1:255 32 0] 
r 1.641609371 _11_ RTR  --- 20 message 32 [0 ffffffff e 800] ------- [14:255 -1:255 32 0] 
s 1.652491191 _8_ AGT  --- 21 tcp 40 [0 0 0 0] ------- [8:0 9:7 32 0] [0 0] 0 0
r 1.652491191 _8_ RTR  --- 21 tcp 40 [0 0 0 0] ------- [8:0 9:7 32 0] [0 0] 0 0
s 1.735006124 _9_ RTR  --- 22 message 32 [0 0 0 0] ------- [9:255 -1:255 32 0] 
r 1.737456181 _13_ RTR  --- 22 message 32 [0 ffffffff 9 800] ------- [9:255 -1:255 32 0] 
s 1.737456181 _13_ RTR  --- 12 tcp 80 [0 0 0 0] ------- [13:1 9:6 32 9] [0 0] 0 0
r 1.737456304 _7_ RTR  --- 22 message 32 [0 ffffffff 9 800] ------- [9:255 -1:255 32 0] 
r 1.737456415 _1_ RTR  --- 22 message 32 [0 ffffffff 9 800] ------- [9:255 -1:255 32 0] 
s 1.737456415 _1_ RTR  --- 9 tcp 80 [0 0 0 0] ------- [1:0 9:0 32 9] [0 0] 0 0
s 1.737456415 _1_ RTR  --- 18 tcp 80 [0 0 0 0] ------- [1:1 9:5 32 9] [0 0] 0 0
D 1.737456415 _1_ IFQ  ARP 9 tcp 80 [0 0 1 800] ------- [1:0 9:0 32 9] [0 0] 0 0
r 1.737456473 _12_ RTR  --- 22 message 32 [0 ffffffff 9 800] ------- [9:255 -1:255 32 0] 
r 1.737456508 _11_ RTR  --- 22 message 32 [0 ffffffff 9 800] ------- [9:255 -1:255 32 0] 
s 1.737456508 _11_ RTR  --- 13 tcp 80 [0 0 0 0] ------- [11:0 9:4 32 9] [0 0] 0 0
r 1.737456521 _8_ RTR  --- 22 message 32 [0 ffffffff 9 800] ------- [9:255 -1:255 32 0] 
s 1.737456521 _8_ RTR  --- 8 tcp 80 [0 0 0 0] ------- [8:1 9:15 32 9] [0 0] 0 0
s 1.737456521 _8_ RTR  --- 21 tcp 80 [0 0 0 0] ------- [8:0 9:7 32 9] [0 0] 0 0
D 1.737456521 _8_ IFQ  ARP 8 tcp 80 [0 0 8 800] ------- [8:1 9:15 32 9] [0 0] 0 0
r 1.737456591 _16_ RTR  --- 22 message 32 [0 ffffffff 9 800] ------- [9:255 -1:255 32 0] 
r 1.737456776 _2_ RTR  --- 22 message 32 [0 ffffffff 9 800] ------- [9:255 -1:255 32 0] 
r 1.737456796 _17_ RTR  --- 22 message 32 [0 ffffffff 9 800] ------- [9:255 -1:255 32 0] 
s 1.751435982 _17_ RTR  --- 23 message 32 [0 0 0 0] ------- [17:255 -1:255 32 0] 
r 1.756728353 _9_ AGT  --- 12 tcp 80 [0 9 d 800] ------- [13:1 9:6 32 9] [0 0] 1 0
s 1.756728353 _9_ AGT  --- 24 ack 40 [0 0 0 0] ------- [9:6 13:1 32 0] [0 0] 0 0
r 1.756728353 _9_ RTR  --- 24 ack 40 [0 0 0 0] ------- [9:6 13:1 32 0] [0 0] 0 0
s 1.756728353 _9_ RTR  --- 24 ack 60 [0 0 0 0] ------- [9:6 13:1 32 13] [0 0] 0 0
r 1.763102213 _0_ RTR  --- 23 message 32 [0 ffffffff 11 800] ------- [17:255 -1:255 32 0] 
r 1.763102391 _3_ RTR  --- 23 message 32 [0 ffffffff 11 800] ------- [17:255 -1:255 32 0] 
r 1.763102473 _11_ RTR  --- 23 message 32 [0 ffffffff 11 800] ------- [17:255 -1:255 32 0] 
r 1.763102496 _14_ RTR  --- 23 message 32 [0 ffffffff 11 800] ------- [17:255 -1:255 32 0] 
r 1.763102608 _13_ RTR  --- 23 message 32 [0 ffffffff 11 800] ------- [17:255 -1:255 32 0] 
r 1.763102643 _10_ RTR  --- 23 message 32 [0 ffffffff 11 800] ------- [17:255 -1:255 32 0] 
r 1.763102650 _6_ RTR  --- 23 message 32 [0 ffffffff 11 800] ------- [17:255 -1:255 32 0] 
r 1.763102653 _9_ RTR  --- 23 message 32 [0 ffffffff 11 800] ------- [17:255 -1:255 32 0] 
r 1.763102704 _12_ RTR  --- 23 message 32 [0 ffffffff 11 800] ------- [17:255 -1:255 32 0] 
r 1.763102764 _7_ RTR  --- 23 message 32 [0 ffffffff 11 800] ------- [17:255 -1:255 32 0] 
r 1.763102788 _2_ RTR  --- 23 message 32 [0 ffffffff 11 800] ------- [17:255 -1:255 32 0] 
r 1.767028519 _9_ AGT  --- 18 tcp 80 [0 9 1 800] ------- [1:1 9:5 32 9] [0 0] 1 0
s 1.767028519 _9_ AGT  --- 25 ack 40 [0 0 0 0] ------- [9:5 1:1 32 0] [0 0] 0 0
r 1.767028519 _9_ RTR  --- 25 ack 40 [0 0 0 0] ------- [9:5 1:1 32 0] [0 0] 0 0
s 1.767028519 _9_ RTR  --- 25 ack 60 [0 0 0 0] ------- [9:5 1:1 32 1] [0 0] 0 0
r 1.774965159 _13_ AGT  --- 24 ack 60 [0 d 9 800] ------- [9:6 13:1 32 13] [0 0] 1 0
s 1.774965159 _13_ AGT  --- 26 tcp 1040 [0 0 0 0] ------- [13:1 9:6 32 0] [1 0] 0 0
r 1.774965159 _13_ RTR  --- 26 tcp 1040 [0 0 0 0] ------- [13:1 9:6 32 0] [1 0] 0 0
s 1.774965159 _13_ RTR  --- 26 tcp 1060 [0 0 0 0] ------- [13:1 9:6 32 9] [1 0] 0 0
s 1.774965159 _13_ AGT  --- 27 tcp 1040 [0 0 0 0] ------- [13:1 9:6 32 0] [2 0] 0 0
r 1.774965159 _13_ RTR  --- 27 tcp 1040 [0 0 0 0] ------- [13:1 9:6 32 0] [2 0] 0 0
s 1.774965159 _13_ RTR  --- 27 tcp 1060 [0 0 0 0] ------- [13:1 9:6 32 9] [2 0] 0 0
r 1.780405508 _1_ AGT  --- 25 ack 60 [0 1 9 800] ------- [9:5 1:1 32 1] [0 0] 1 0
s 1.780405508 _1_ AGT  --- 28 tcp 1040 [0 0 0 0] ------- [1:1 9:5 32 0] [1 0] 0 0
r 1.780405508 _1_ RTR  --- 28 tcp 1040 [0 0 0 0] ------- [1:1 9:5 32 0] [1 0] 0 0
s 1.780405508 _1_ RTR  --- 28 tcp 1060 [0 0 0 0] ------- [1:1 9:5 32 9] [1 0] 0 0
s 1.780405508 _1_ AGT  --- 29 tcp 1040 [0 0 0 0] ------- [1:1 9:5 32 0] [2 0] 0 0
r 1.780405508 _1_ RTR  --- 29 tcp 1040 [0 0 0 0] ------- [1:1 9:5 32 0] [2 0] 0 0
s 1.780405508 _1_ RTR  --- 29 tcp 1060 [0 0 0 0] ------- [1:1 9:5 32 9] [2 0] 0 0
r 1.782823217 _9_ AGT  --- 26 tcp 36 [0 9 d 800] ------- [13:1 9:6 32 9] [1 0] 1 0
s 1.782823217 _9_ AGT  --- 30 ack 40 [0 0 0 0] ------- [9:6 13:1 32 0] [1 0] 0 0
r 1.782823217 _9_ RTR  --- 30 ack 40 [0 0 0 0] ------- [9:6 13:1 32 0] [1 0] 0 0
s 1.782823217 _9_ RTR  --- 30 ack 60 [0 0 0 0] ------- [9:6 13:1 32 13] [1 0] 0 0
r 1.792615800 _9_ AGT  --- 28 tcp 36 [0 9 1 800] ------- [1:1 9:5 32 9] [1 0] 1 0
s 1.792615800 _9_ AGT  --- 31 ack 40 [0 0 0 0] ------- [9:5 1:1 32 0] [1 0] 0 0
r 1.792615800 _9_ RTR  --- 31 ack 40 [0 0 0 0] ------- [9:5 1:1 32 0] [1 0] 0 0
s 1.792615800 _9_ RTR  --- 31 ack 60 [0 0 0 0] ------- [9:5 1:1 32 1] [1 0] 0 0
s 1.795708390 _3_ AGT  --- 32 tcp 40 [0 0 0 0] ------- [3:0 9:8 32 0] [0 0] 0 0
r 1.795708390 _3_ RTR  --- 32 tcp 40 [0 0 0 0] ------- [3:0 9:8 32 0] [0 0] 0 0
r 1.796455857 _13_ AGT  --- 30 ack 60 [0 d 9 800] ------- [9:6 13:1 32 13] [1 0] 1 0
s 1.796455857 _13_ AGT  --- 33 tcp 1040 [0 0 0 0] ------- [13:1 9:6 32 0] [3 0] 0 0
r 1.796455857 _13_ RTR  --- 33 tcp 1040 [0 0 0 0] ------- [13:1 9:6 32 0] [3 0] 0 0
s 1.796455857 _13_ RTR  --- 33 tcp 1060 [0 0 0 0] ------- [13:1 9:6 32 9] [3 0] 0 0
r 1.798887915 _9_ AGT  --- 27 tcp 36 [0 9 d 800] ------- [13:1 9:6 32 9] [2 0] 1 0
s 1.798887915 _9_ AGT  --- 34 ack 40 [0 0 0 0] ------- [9:6 13:1 32 0] [2 0] 0 0
r 1.798887915 _9_ RTR  --- 34 ack 40 [0 0 0 0] ------- [9:6 13:1 32 0] [2 0] 0 0
s 1.798887915 _9_ RTR  --- 34 ack 60 [0 0 0 0] ------- [9:6 13:1 32 13] [2 0] 0 0
r 1.802088206 _1_ AGT  --- 31 ack 60 [0 1 9 800] ------- [9:5 1:1 32 1] [1 0] 1 0
r 1.805608555 _13_ AGT  --- 34 ack 60 [0 d 9 800] ------- [9:6 13:1 32 13] [2 0] 1 0
r 1.810280613 _9_ AGT  --- 33 tcp 36 [0 9 d 800] ------- [13:1 9:6 32 9] [3 0] 1 0
s 1.810280613 _9_ AGT  --- 36 ack 40 [0 0 0 0] ------- [9:6 13:1 32 0] [3 0] 0 0
r 1.810280613 _9_ RTR  --- 36 ack 40 [0 0 0 0] ------- [9:6 13:1 32 0] [3 0] 0 0
s 1.810280613 _9_ RTR  --- 36 ack 60 [0 0 0 0] ------- [9:6 13:1 32 13] [3 0] 0 0
s 1.811501830 _15_ RTR  --- 35 message 32 [0 0 0 0] ------- [15:255 -1:255 32 0] 
r 1.814170670 _13_ AGT  --- 36 ack 60 [0 d 9 800] ------- [9:6 13:1 32 13] [3 0] 1 0
r 1.816191902 _18_ RTR  --- 35 message 32 [0 ffffffff f 800] ------- [15:255 -1:255 32 0] 
r 1.816191917 _4_ RTR  --- 35 message 32 [0 ffffffff f 800] ------- [15:255 -1:255 32 0] 
r 1.816192348 _14_ RTR  --- 35 message 32 [0 ffffffff f 800] ------- [15:255 -1:255 32 0] 
r 1.816192374 _3_ RTR  --- 35 message 32 [0 ffffffff f 800] ------- [15:255 -1:255 32 0] 
r 1.816192592 _6_ RTR  --- 35 message 32 [0 ffffffff f 800] ------- [15:255 -1:255 32 0] 
r 1.818408010 _9_ AGT  --- 21 tcp 80 [0 9 8 800] ------- [8:0 9:7 32 9] [0 0] 1 0
s 1.818408010 _9_ AGT  --- 37 ack 40 [0 0 0 0] ------- [9:7 8:0 32 0] [0 0] 0 0
r 1.818408010 _9_ RTR  --- 37 ack 40 [0 0 0 0] ------- [9:7 8:0 32 0] [0 0] 0 0
s 1.818408010 _9_ RTR  --- 37 ack 60 [0 0 0 0] ------- [9:7 8:0 32 8] [0 0] 0 0
s 1.821175097 _2_ AGT  --- 38 tcp 40 [0 0 0 0] ------- [2:1 9:11 32 0] [0 0] 0 0
r 1.821175097 _2_ RTR  --- 38 tcp 40 [0 0 0 0] ------- [2:1 9:11 32 0] [0 0] 0 0
s 1.821175097 _2_ RTR  --- 38 tcp 60 [0 0 0 0] ------- [2:1 9:11 32 9] [0 0] 0 0
r 1.825576498 _9_ AGT  --- 29 tcp 36 [0 9 1 800] ------- [1:1 9:5 32 9] [2 0] 1 0
s 1.825576498 _9_ AGT  --- 39 ack 40 [0 0 0 0] ------- [9:5 1:1 32 0] [2 0] 0 0
r 1.825576498 _9_ RTR  --- 39 ack 40 [0 0 0 0] ------- [9:5 1:1 32 0] [2 0] 0 0
s 1.825576498 _9_ RTR  --- 39 ack 60 [0 0 0 0] ------- [9:5 1:1 32 1] [2 0] 0 0
s 1.827313802 _7_ AGT  --- 40 tcp 40 [0 0 0 0] ------- [7:0 9:12 32 0] [0 0] 0 0
r 1.827313802 _7_ RTR  --- 40 tcp 40 [0 0 0 0] ------- [7:0 9:12 32 0] [0 0] 0 0
s 1.827313802 _7_ RTR  --- 40 tcp 60 [0 0 0 0] ------- [7:0 9:12 32 9] [0 0] 0 0
r 1.829096895 _8_ AGT  --- 37 ack 60 [0 8 9 800] ------- [9:7 8:0 32 8] [0 0] 1 0
s 1.829096895 _8_ AGT  --- 41 tcp 1040 [0 0 0 0] ------- [8:0 9:7 32 0] [1 0] 0 0
r 1.829096895 _8_ RTR  --- 41 tcp 1040 [0 0 0 0] ------- [8:0 9:7 32 0] [1 0] 0 0
s 1.829096895 _8_ RTR  --- 41 tcp 1060 [0 0 0 0] ------- [8:0 9:7 32 9] [1 0] 0 0
r 1.833499292 _9_ AGT  --- 41 tcp 36 [0 9 8 800] ------- [8:0 9:7 32 9] [1 0] 1 0
s 1.833499292 _9_ AGT  --- 42 ack 40 [0 0 0 0] ------- [9:7 8:0 32 0] [1 0] 0 0
r 1.833499292 _9_ RTR  --- 42 ack 40 [0 0 0 0] ------- [9:7 8:0 32 0] [1 0] 0 0
s 1.833499292 _9_ RTR  --- 42 ack 60 [0 0 0 0] ------- [9:7 8:0 32 8] [1 0] 0 0
s 1.843029015 _4_ AGT  --- 43 tcp 40 [0 0 0 0] ------- [4:1 9:17 32 0] [0 0] 0 0
r 1.843029015 _4_ RTR  --- 43 tcp 40 [0 0 0 0] ------- [4:1 9:17 32 0] [0 0] 0 0
r 1.853916378 _1_ AGT  --- 39 ack 60 [0 1 9 800] ------- [9:5 1:1 32 1] [2 0] 1 0
r 1.859357067 _8_ AGT  --- 42 ack 60 [0 8 9 800] ------- [9:7 8:0 32 8] [1 0] 1 0
s 1.860542951 _14_ AGT  --- 44 tcp 40 [0 0 0 0] ------- [14:0 9:18 32 0] [0 0] 0 0
r 1.860542951 _14_ RTR  --- 44 tcp 40 [0 0 0 0] ------- [14:0 9:18 32 0] [0 0] 0 0
r 1.867299767 _9_ AGT  --- 38 tcp 60 [0 9 2 800] ------- [2:1 9:11 32 9] [0 0] 1 0
s 1.867299767 _9_ AGT  --- 45 ack 40 [0 0 0 0] ------- [9:11 2:1 32 0] [0 0] 0 0
r 1.867299767 _9_ RTR  --- 45 ack 40 [0 0 0 0] ------- [9:11 2:1 32 0] [0 0] 0 0
s 1.867299767 _9_ RTR  --- 45 ack 60 [0 0 0 0] ------- [9:11 2:1 32 2] [0 0] 0 0
r 1.872150419 _2_ AGT  --- 45 ack 60 [0 2 9 800] ------- [9:11 2:1 32 2] [0 0] 1 0
s 1.872150419 _2_ AGT  --- 46 tcp 1040 [0 0 0 0] ------- [2:1 9:11 32 0] [1 0] 0 0
r 1.872150419 _2_ RTR  --- 46 tcp 1040 [0 0 0 0] ------- [2:1 9:11 32 0] [1 0] 0 0
s 1.872150419 _2_ RTR  --- 46 tcp 1060 [0 0 0 0] ------- [2:1 9:11 32 9] [1 0] 0 0
s 1.872150419 _2_ AGT  --- 47 tcp 1040 [0 0 0 0] ------- [2:1 9:11 32 0] [2 0] 0 0
r 1.872150419 _2_ RTR  --- 47 tcp 1040 [0 0 0 0] ------- [2:1 9:11 32 0] [2 0] 0 0
s 1.872150419 _2_ RTR  --- 47 tcp 1060 [0 0 0 0] ------- [2:1 9:11 32 9] [2 0] 0 0
r 1.876233071 _9_ AGT  --- 46 tcp 36 [0 9 2 800] ------- [2:1 9:11 32 9] [1 0] 1 0
s 1.876233071 _9_ AGT  --- 48 ack 40 [0 0 0 0] ------- [9:11 2:1 32 0] [1 0] 0 0
r 1.876233071 _9_ RTR  --- 48 ack 40 [0 0 0 0] ------- [9:11 2:1 32 0] [1 0] 0 0
s 1.876233071 _9_ RTR  --- 48 ack 60 [0 0 0 0] ------- [9:11 2:1 32 2] [1 0] 0 0
r 1.884618374 _9_ AGT  --- 47 tcp 36 [0 9 2 800] ------- [2:1 9:11 32 9] [2 0] 1 0
s 1.884618374 _9_ AGT  --- 49 ack 40 [0 0 0 0] ------- [9:11 2:1 32 0] [2 0] 0 0
r 1.884618374 _9_ RTR  --- 49 ack 40 [0 0 0 0] ------- [9:11 2:1 32 0] [2 0] 0 0
s 1.884618374 _9_ RTR  --- 49 ack 60 [0 0 0 0] ------- [9:11 2:1 32 2] [2 0] 0 0
r 1.889419025 _2_ AGT  --- 48 ack 60 [0 2 9 800] ------- [9:11 2:1 32 2] [1 0] 1 0
r 1.893580328 _2_ AGT  --- 49 ack 60 [0 2 9 800] ------- [9:11 2:1 32 2] [2 0] 1 0
s 1.897765673 _5_ AGT  --- 51 tcp 40 [0 0 0 0] ------- [5:0 9:19 32 0] [0 0] 0 0
r 1.897765673 _5_ RTR  --- 51 tcp 40 [0 0 0 0] ------- [5:0 9:19 32 0] [0 0] 0 0
s 1.899441843 _0_ RTR  --- 50 message 32 [0 0 0 0] ------- [0:255 -1:255 32 0] 
r 1.903812045 _3_ RTR  --- 50 message 32 [0 ffffffff 0 800] ------- [0:255 -1:255 32 0] 
r 1.903812075 _17_ RTR  --- 50 message 32 [0 ffffffff 0 800] ------- [0:255 -1:255 32 0] 
r 1.903812129 _14_ RTR  --- 50 message 32 [0 ffffffff 0 800] ------- [0:255 -1:255 32 0] 
r 1.903812304 _6_ RTR  --- 50 message 32 [0 ffffffff 0 800] ------- [0:255 -1:255 32 0] 
r 1.903812430 _11_ RTR  --- 50 message 32 [0 ffffffff 0 800] ------- [0:255 -1:255 32 0] 
r 1.903812542 _10_ RTR  --- 50 message 32 [0 ffffffff 0 800] ------- [0:255 -1:255 32 0] 
r 1.903812587 _15_ RTR  --- 50 message 32 [0 ffffffff 0 800] ------- [0:255 -1:255 32 0] 
r 1.903812646 _13_ RTR  --- 50 message 32 [0 ffffffff 0 800] ------- [0:255 -1:255 32 0] 
r 1.903812653 _18_ RTR  --- 50 message 32 [0 ffffffff 0 800] ------- [0:255 -1:255 32 0] 
r 1.903812666 _2_ RTR  --- 50 message 32 [0 ffffffff 0 800] ------- [0:255 -1:255 32 0] 
r 1.903812668 _12_ RTR  --- 50 message 32 [0 ffffffff 0 800] ------- [0:255 -1:255 32 0] 
r 1.903812671 _4_ RTR  --- 50 message 32 [0 ffffffff 0 800] ------- [0:255 -1:255 32 0] 
s 1.952994556 _5_ RTR  --- 52 message 32 [0 0 0 0] ------- [5:255 -1:255 32 0] 
r 1.956084838 _2_ RTR  --- 52 message 32 [0 ffffffff 5 800] ------- [5:255 -1:255 32 0] 
r 1.956084962 _19_ RTR  --- 52 message 32 [0 ffffffff 5 800] ------- [5:255 -1:255 32 0] 
r 1.956085105 _12_ RTR  --- 52 message 32 [0 ffffffff 5 800] ------- [5:255 -1:255 32 0] 
r 1.956085128 _8_ RTR  --- 52 message 32 [0 ffffffff 5 800] ------- [5:255 -1:255 32 0] 
r 1.956085206 _11_ RTR  --- 52 message 32 [0 ffffffff 5 800] ------- [5:255 -1:255 32 0] 
r 1.956085316 _7_ RTR  --- 52 message 32 [0 ffffffff 5 800] ------- [5:255 -1:255 32 0] 
r 1.956085382 _18_ RTR  --- 52 message 32 [0 ffffffff 5 800] ------- [5:255 -1:255 32 0] 
s 1.967493207 _8_ AGT  --- 53 tcp 1040 [0 0 0 0] ------- [8:0 9:7 32 0] [2 0] 0 0
r 1.967493207 _8_ RTR  --- 53 tcp 1040 [0 0 0 0] ------- [8:0 9:7 32 0] [2 0] 0 0
s 1.967493207 _8_ RTR  --- 53 tcp 1060 [0 0 0 0] ------- [8:0 9:7 32 9] [2 0] 0 0
r 1.972215604 _9_ AGT  --- 53 tcp 36 [0 9 8 800] ------- [8:0 9:7 32 9] [2 0] 1 0
s 1.972215604 _9_ AGT  --- 54 ack 40 [0 0 0 0] ------- [9:7 8:0 32 0] [2 0] 0 0
r 1.972215604 _9_ RTR  --- 54 ack 40 [0 0 0 0] ------- [9:7 8:0 32 0] [2 0] 0 0
s 1.972215604 _9_ RTR  --- 54 ack 60 [0 0 0 0] ------- [9:7 8:0 32 8] [2 0] 0 0
r 1.978346002 _8_ AGT  --- 54 ack 60 [0 8 9 800] ------- [9:7 8:0 32 8] [2 0] 1 0
s 2.104996572 _0_ AGT  --- 55 tcp 40 [0 0 0 0] ------- [0:1 9:13 32 0] [0 0] 0 0
r 2.104996572 _0_ RTR  --- 55 tcp 40 [0 0 0 0] ------- [0:1 9:13 32 0] [0 0] 0 0
s 2.261379469 _2_ AGT  --- 56 tcp 1040 [0 0 0 0] ------- [2:1 9:11 32 0] [3 0] 0 0
r 2.261379469 _2_ RTR  --- 56 tcp 1040 [0 0 0 0] ------- [2:1 9:11 32 0] [3 0] 0 0
s 2.261379469 _2_ RTR  --- 56 tcp 1060 [0 0 0 0] ------- [2:1 9:11 32 9] [3 0] 0 0
r 2.266102119 _9_ AGT  --- 56 tcp 36 [0 9 2 800] ------- [2:1 9:11 32 9] [3 0] 1 0
s 2.266102119 _9_ AGT  --- 57 ack 40 [0 0 0 0] ------- [9:11 2:1 32 0] [3 0] 0 0
r 2.266102119 _9_ RTR  --- 57 ack 40 [0 0 0 0] ------- [9:11 2:1 32 0] [3 0] 0 0
s 2.266102119 _9_ RTR  --- 57 ack 60 [0 0 0 0] ------- [9:11 2:1 32 2] [3 0] 0 0
r 2.269992770 _2_ AGT  --- 57 ack 60 [0 2 9 800] ------- [9:11 2:1 32 2] [3 0] 1 0
s 2.541069103 _0_ AGT  --- 58 tcp 40 [0 0 0 0] ------- [0:2 9:16 32 0] [0 0] 0 0
r 2.541069103 _0_ RTR  --- 58 tcp 40 [0 0 0 0] ------- [0:2 9:16 32 0] [0 0] 0 0
s 2.572069261 _2_ AGT  --- 59 tcp 40 [0 0 0 0] ------- [2:0 9:9 32 0] [0 0] 0 0
r 2.572069261 _2_ RTR  --- 59 tcp 40 [0 0 0 0] ------- [2:0 9:9 32 0] [0 0] 0 0
s 2.572069261 _2_ RTR  --- 59 tcp 60 [0 0 0 0] ------- [2:0 9:9 32 9] [0 0] 0 0
r 2.577559911 _9_ AGT  --- 59 tcp 60 [0 9 2 800] ------- [2:0 9:9 32 9] [0 0] 1 0
s 2.577559911 _9_ AGT  --- 60 ack 40 [0 0 0 0] ------- [9:9 2:0 32 0] [0 0] 0 0
r 2.577559911 _9_ RTR  --- 60 ack 40 [0 0 0 0] ------- [9:9 2:0 32 0] [0 0] 0 0
s 2.577559911 _9_ RTR  --- 60 ack 60 [0 0 0 0] ------- [9:9 2:0 32 2] [0 0] 0 0
r 2.583370561 _2_ AGT  --- 60 ack 60 [0 2 9 800] ------- [9:9 2:0 32 2] [0 0] 1 0
s 2.583370561 _2_ AGT  --- 61 tcp 1040 [0 0 0 0] ------- [2:0 9:9 32 0] [1 0] 0 0
r 2.583370561 _2_ RTR  --- 61 tcp 1040 [0 0 0 0] ------- [2:0 9:9 32 0] [1 0] 0 0
s 2.583370561 _2_ RTR  --- 61 tcp 1060 [0 0 0 0] ------- [2:0 9:9 32 9] [1 0] 0 0
r 2.587773211 _9_ AGT  --- 61 tcp 36 [0 9 2 800] ------- [2:0 9:9 32 9] [1 0] 1 0
s 2.587773211 _9_ AGT  --- 62 ack 40 [0 0 0 0] ------- [9:9 2:0 32 0] [1 0] 0 0
r 2.587773211 _9_ RTR  --- 62 ack 40 [0 0 0 0] ------- [9:9 2:0 32 0] [1 0] 0 0