s 0.080671574 _1_ RTR  --- 0 message 32 [0 0 0 0] ------- [1:255 -1:255 32 0] 
r 0.084721737 _39_ RTR  --- 0 message 32 [0 ffffffff 1 800] ------- [1:255 -1:255 32 0] 
r 0.084721748 _38_ RTR  --- 0 message 32 [0 ffffffff 1 800] ------- [1:255 -1:255 32 0] 
r 0.084721836 _7_ RTR  --- 0 message 32 [0 ffffffff 1 800] ------- [1:255 -1:255 32 0] 
r 0.084721861 _34_ RTR  --- 0 message 32 [0 ffffffff 1 800] ------- [1:255 -1:255 32 0] 
r 0.084721863 _9_ RTR  --- 0 message 32 [0 ffffffff 1 800] ------- [1:255 -1:255 32 0] 
r 0.084721878 _29_ RTR  --- 0 message 32 [0 ffffffff 1 800] ------- [1:255 -1:255 32 0] 
r 0.084721910 _33_ RTR  --- 0 message 32 [0 ffffffff 1 800] ------- [1:255 -1:255 32 0] 
r 0.084721912 _13_ RTR  --- 0 message 32 [0 ffffffff 1 800] ------- [1:255 -1:255 32 0] 
r 0.084721972 _16_ RTR  --- 0 message 32 [0 ffffffff 1 800] ------- [1:255 -1:255 32 0] 
r 0.084721991 _8_ RTR  --- 0 message 32 [0 ffffffff 1 800] ------- [1:255 -1:255 32 0] 
r 0.084722006 _35_ RTR  --- 0 message 32 [0 ffffffff 1 800] ------- [1:255 -1:255 32 0] 
r 0.084722075 _12_ RTR  --- 0 message 32 [0 ffffffff 1 800] ------- [1:255 -1:255 32 0] 
r 0.084722207 _11_ RTR  --- 0 message 32 [0 ffffffff 1 800] ------- [1:255 -1:255 32 0] 
r 0.084722320 _30_ RTR  --- 0 message 32 [0 ffffffff 1 800] ------- [1:255 -1:255 32 0] 
r 0.084722378 _2_ RTR  --- 0 message 32 [0 ffffffff 1 800] ------- [1:255 -1:255 32 0] 
s 0.118169808 _6_ RTR  --- 1 message 32 [0 0 0 0] ------- [6:255 -1:255 32 0] 
r 0.121899823 _32_ RTR  --- 1 message 32 [0 ffffffff 6 800] ------- [6:255 -1:255 32 0] 
r 0.121899954 _26_ RTR  --- 1 message 32 [0 ffffffff 6 800] ------- [6:255 -1:255 32 0] 
r 0.121900041 _23_ RTR  --- 1 message 32 [0 ffffffff 6 800] ------- [6:255 -1:255 32 0] 
r 0.121900138 _14_ RTR  --- 1 message 32 [0 ffffffff 6 800] ------- [6:255 -1:255 32 0] 
r 0.121900256 _3_ RTR  --- 1 message 32 [0 ffffffff 6 800] ------- [6:255 -1:255 32 0] 
r 0.121900269 _0_ RTR  --- 1 message 32 [0 ffffffff 6 800] ------- [6:255 -1:255 32 0] 
r 0.121900475 _17_ RTR  --- 1 message 32 [0 ffffffff 6 800] ------- [6:255 -1:255 32 0] 
r 0.121900513 _22_ RTR  --- 1 message 32 [0 ffffffff 6 800] ------- [6:255 -1:255 32 0] 
r 0.121900517 _25_ RTR  --- 1 message 32 [0 ffffffff 6 800] ------- [6:255 -1:255 32 0] 
r 0.121900550 _24_ RTR  --- 1 message 32 [0 ffffffff 6 800] ------- [6:255 -1:255 32 0] 
r 0.121900560 _10_ RTR  --- 1 message 32 [0 ffffffff 6 800] ------- [6:255 -1:255 32 0] 
r 0.121900578 _15_ RTR  --- 1 message 32 [0 ffffffff 6 800] ------- [6:255 -1:255 32 0] 
r 0.121900636 _4_ RTR  --- 1 message 32 [0 ffffffff 6 800] ------- [6:255 -1:255 32 0] 
s 0.136561445 _22_ RTR  --- 2 message 32 [0 0 0 0] ------- [22:255 -1:255 32 0] 
r 0.139011547 _10_ RTR  --- 2 message 32 [0 ffffffff 16 800] ------- [22:255 -1:255 32 0] 
r 0.139012009 _17_ RTR  --- 2 message 32 [0 ffffffff 16 800] ------- [22:255 -1:255 32 0] 
r 0.139012033 _36_ RTR  --- 2 message 32 [0 ffffffff 16 800] ------- [22:255 -1:255 32 0] 
r 0.139012055 _0_ RTR  --- 2 message 32 [0 ffffffff 16 800] ------- [22:255 -1:255 32 0] 
r 0.139012122 _30_ RTR  --- 2 message 32 [0 ffffffff 16 800] ------- [22:255 -1:255 32 0] 
r 0.139012150 _6_ RTR  --- 2 message 32 [0 ffffffff 16 800] ------- [22:255 -1:255 32 0] 
r 0.139012164 _32_ RTR  --- 2 message 32 [0 ffffffff 16 800] ------- [22:255 -1:255 32 0] 
r 0.139012233 _26_ RTR  --- 2 message 32 [0 ffffffff 16 800] ------- [22:255 -1:255 32 0] 
r 0.139012237 _3_ RTR  --- 2 message 32 [0 ffffffff 16 800] ------- [22:255 -1:255 32 0] 
r 0.139012254 _14_ RTR  --- 2 message 32 [0 ffffffff 16 800] ------- [22:255 -1:255 32 0] 
s 0.313126268 _18_ RTR  --- 3 message 32 [0 0 0 0] ------- [18:255 -1:255 32 0] 
r 0.317816323 _4_ RTR  --- 3 message 32 [0 ffffffff 12 800] ------- [18:255 -1:255 32 0] 
r 0.317816345 _15_ RTR  --- 3 message 32 [0 ffffffff 12 800] ------- [18:255 -1:255 32 0] 
r 0.317816395 _24_ RTR  --- 3 message 32 [0 ffffffff 12 800] ------- [18:255 -1:255 32 0] 
r 0.317816488 _28_ RTR  --- 3 message 32 [0 ffffffff 12 800] ------- [18:255 -1:255 32 0] 
r 0.317816570 _20_ RTR  --- 3 message 32 [0 ffffffff 12 800] ------- [18:255 -1:255 32 0] 
r 0.317816622 _25_ RTR  --- 3 message 32 [0 ffffffff 12 800] ------- [18:255 -1:255 32 0] 
r 0.317816691 _21_ RTR  --- 3 message 32 [0 ffffffff 12 800] ------- [18:255 -1:255 32 0] 
r 0.317816700 _27_ RTR  --- 3 message 32 [0 ffffffff 12 800] ------- [18:255 -1:255 32 0] 
r 0.317816864 _14_ RTR  --- 3 message 32 [0 ffffffff 12 800] ------- [18:255 -1:255 32 0] 
r 0.317816889 _3_ RTR  --- 3 message 32 [0 ffffffff 12 800] ------- [18:255 -1:255 32 0] 
r 0.317816889 _23_ RTR  --- 3 message 32 [0 ffffffff 12 800] ------- [18:255 -1:255 32 0] 
r 0.317816969 _26_ RTR  --- 3 message 32 [0 ffffffff 12 800] ------- [18:255 -1:255 32 0] 
r 0.317817079 _2_ RTR  --- 3 message 32 [0 ffffffff 12 800] ------- [18:255 -1:255 32 0] 
r 0.317817085 _0_ RTR  --- 3 message 32 [0 ffffffff 12 800] ------- [18:255 -1:255 32 0] 
s 0.328015452 _33_ RTR  --- 4 message 32 [0 0 0 0] ------- [33:255 -1:255 32 0] 
r 0.332065552 _16_ RTR  --- 4 message 32 [0 ffffffff 21 800] ------- [33:255 -1:255 32 0] 
r 0.332065632 _39_ RTR  --- 4 message 32 [0 ffffffff 21 800] ------- [33:255 -1:255 32 0] 
r 0.332065656 _38_ RTR  --- 4 message 32 [0 ffffffff 21 800] ------- [33:255 -1:255 32 0] 
r 0.332065716 _34_ RTR  --- 4 message 32 [0 ffffffff 21 800] ------- [33:255 -1:255 32 0] 
r 0.332065788 _1_ RTR  --- 4 message 32 [0 ffffffff 21 800] ------- [33:255 -1:255 32 0] 
r 0.332065824 _9_ RTR  --- 4 message 32 [0 ffffffff 21 800] ------- [33:255 -1:255 32 0] 
r 0.332065871 _13_ RTR  --- 4 message 32 [0 ffffffff 21 800] ------- [33:255 -1:255 32 0] 
r 0.332065942 _7_ RTR  --- 4 message 32 [0 ffffffff 21 800] ------- [33:255 -1:255 32 0] 
r 0.332065986 _30_ RTR  --- 4 message 32 [0 ffffffff 21 800] ------- [33:255 -1:255 32 0] 
r 0.332066059 _29_ RTR  --- 4 message 32 [0 ffffffff 21 800] ------- [33:255 -1:255 32 0] 
r 0.332066076 _36_ RTR  --- 4 message 32 [0 ffffffff 21 800] ------- [33:255 -1:255 32 0] 
r 0.332066154 _8_ RTR  --- 4 message 32 [0 ffffffff 21 800] ------- [33:255 -1:255 32 0] 
r 0.332066166 _12_ RTR  --- 4 message 32 [0 ffffffff 21 800] ------- [33:255 -1:255 32 0] 
r 0.332066189 _35_ RTR  --- 4 message 32 [0 ffffffff 21 800] ------- [33:255 -1:255 32 0] 
r 0.332066203 _11_ RTR  --- 4 message 32 [0 ffffffff 21 800] ------- [33:255 -1:255 32 0] 
s 0.417199696 _30_ RTR  --- 5 message 32 [0 0 0 0] ------- [30:255 -1:255 32 0] 
r 0.420929794 _36_ RTR  --- 5 message 32 [0 ffffffff 1e 800] ------- [30:255 -1:255 32 0] 
r 0.420930161 _34_ RTR  --- 5 message 32 [0 ffffffff 1e 800] ------- [30:255 -1:255 32 0] 
r 0.420930180 _17_ RTR  --- 5 message 32 [0 ffffffff 1e 800] ------- [30:255 -1:255 32 0] 
r 0.420930215 _13_ RTR  --- 5 message 32 [0 ffffffff 1e 800] ------- [30:255 -1:255 32 0] 
r 0.420930224 _9_ RTR  --- 5 message 32 [0 ffffffff 1e 800] ------- [30:255 -1:255 32 0] 
r 0.420930229 _33_ RTR  --- 5 message 32 [0 ffffffff 1e 800] ------- [30:255 -1:255 32 0] 
r 0.420930272 _38_ RTR  --- 5 message 32 [0 ffffffff 1e 800] ------- [30:255 -1:255 32 0] 
r 0.420930288 _16_ RTR  --- 5 message 32 [0 ffffffff 1e 800] ------- [30:255 -1:255 32 0] 
r 0.420930355 _39_ RTR  --- 5 message 32 [0 ffffffff 1e 800] ------- [30:255 -1:255 32 0] 
r 0.420930361 _11_ RTR  --- 5 message 32 [0 ffffffff 1e 800] ------- [30:255 -1:255 32 0] 
r 0.420930373 _22_ RTR  --- 5 message 32 [0 ffffffff 1e 800] ------- [30:255 -1:255 32 0] 
r 0.420930396 _7_ RTR  --- 5 message 32 [0 ffffffff 1e 800] ------- [30:255 -1:255 32 0] 
r 0.420930406 _0_ RTR  --- 5 message 32 [0 ffffffff 1e 800] ------- [30:255 -1:255 32 0] 
r 0.420930442 _1_ RTR  --- 5 message 32 [0 ffffffff 1e 800] ------- [30:255 -1:255 32 0] 
r 0.420930452 _10_ RTR  --- 5 message 32 [0 ffffffff 1e 800] ------- [30:255 -1:255 32 0] 
r 0.420930487 _12_ RTR  --- 5 message 32 [0 ffffffff 1e 800] ------- [30:255 -1:255 32 0] 
s 0.457831686 _4_ RTR  --- 6 message 32 [0 0 0 0] ------- [4:255 -1:255 32 0] 
r 0.462521741 _18_ RTR  --- 6 message 32 [0 ffffffff 4 800] ------- [4:255 -1:255 32 0] 
r 0.462521772 _15_ RTR  --- 6 message 32 [0 ffffffff 4 800] ------- [4:255 -1:255 32 0] 
r 0.462521836 _24_ RTR  --- 6 message 32 [0 ffffffff 4 800] ------- [4:255 -1:255 32 0] 
r 0.462521856 _28_ RTR  --- 6 message 32 [0 ffffffff 4 800] ------- [4:255 -1:255 32 0] 
r 0.462521986 _25_ RTR  --- 6 message 32 [0 ffffffff 4 800] ------- [4:255 -1:255 32 0] 
r 0.462522040 _20_ RTR  --- 6 message 32 [0 ffffffff 4 800] ------- [4:255 -1:255 32 0] 
r 0.462522161 _21_ RTR  --- 6 message 32 [0 ffffffff 4 800] ------- [4:255 -1:255 32 0] 
r 0.462522165 _27_ RTR  --- 6 message 32 [0 ffffffff 4 800] ------- [4:255 -1:255 32 0] 
r 0.462522283 _14_ RTR  --- 6 message 32 [0 ffffffff 4 800] ------- [4:255 -1:255 32 0] 
r 0.462522286 _23_ RTR  --- 6 message 32 [0 ffffffff 4 800] ------- [4:255 -1:255 32 0] 
r 0.462522320 _3_ RTR  --- 6 message 32 [0 ffffffff 4 800] ------- [4:255 -1:255 32 0] 
r 0.462522372 _26_ RTR  --- 6 message 32 [0 ffffffff 4 800] ------- [4:255 -1:255 32 0] 
r 0.462522505 _32_ RTR  --- 6 message 32 [0 ffffffff 4 800] ------- [4:255 -1:255 32 0] 
r 0.462522513 _6_ RTR  --- 6 message 32 [0 ffffffff 4 800] ------- [4:255 -1:255 32 0] 
r 0.462522517 _0_ RTR  --- 6 message 32 [0 ffffffff 4 800] ------- [4:255 -1:255 32 0] 
s 0.466527473 _11_ RTR  --- 7 message 32 [0 0 0 0] ------- [11:255 -1:255 32 0] 
r 0.469937700 _12_ RTR  --- 7 message 32 [0 ffffffff b 800] ------- [11:255 -1:255 32 0] 
r 0.469937807 _13_ RTR  --- 7 message 32 [0 ffffffff b 800] ------- [11:255 -1:255 32 0] 
r 0.469937830 _2_ RTR  --- 7 message 32 [0 ffffffff b 800] ------- [11:255 -1:255 32 0] 
r 0.469937854 _7_ RTR  --- 7 message 32 [0 ffffffff b 800] ------- [11:255 -1:255 32 0] 
r 0.469937860 _9_ RTR  --- 7 message 32 [0 ffffffff b 800] ------- [11:255 -1:255 32 0] 
r 0.469937891 _8_ RTR  --- 7 message 32 [0 ffffffff b 800] ------- [11:255 -1:255 32 0] 
r 0.469937950 _29_ RTR  --- 7 message 32 [0 ffffffff b 800] ------- [11:255 -1:255 32 0] 
r 0.469937959 _34_ RTR  --- 7 message 32 [0 ffffffff b 800] ------- [11:255 -1:255 32 0] 
r 0.469937964 _35_ RTR  --- 7 message 32 [0 ffffffff b 800] ------- [11:255 -1:255 32 0] 
r 0.469937983 _17_ RTR  --- 7 message 32 [0 ffffffff b 800] ------- [11:255 -1:255 32 0] 
r 0.469937986 _27_ RTR  --- 7 message 32 [0 ffffffff b 800] ------- [11:255 -1:255 32 0] 
r 0.469938028 _37_ RTR  --- 7 message 32 [0 ffffffff b 800] ------- [11:255 -1:255 32 0] 
r 0.469938060 _38_ RTR  --- 7 message 32 [0 ffffffff b 800] ------- [11:255 -1:255 32 0] 
r 0.469938085 _0_ RTR  --- 7 message 32 [0 ffffffff b 800] ------- [11:255 -1:255 32 0] 
r 0.469938096 _3_ RTR  --- 7 message 32 [0 ffffffff b 800] ------- [11:255 -1:255 32 0] 
r 0.469938105 _1_ RTR  --- 7 message 32 [0 ffffffff b 800] ------- [11:255 -1:255 32 0] 
r 0.469938111 _5_ RTR  --- 7 message 32 [0 ffffffff b 800] ------- [11:255 -1:255 32 0] 
r 0.469938138 _30_ RTR  --- 7 message 32 [0 ffffffff b 800] ------- [11:255 -1:255 32 0] 
r 0.469938175 _39_ RTR  --- 7 message 32 [0 ffffffff b 800] ------- [11:255 -1:255 32 0] 
r 0.469938204 _36_ RTR  --- 7 message 32 [0 ffffffff b 800] ------- [11:255 -1:255 32 0] 
r 0.469938223 _33_ RTR  --- 7 message 32 [0 ffffffff b 800] ------- [11:255 -1:255 32 0] 
r 0.469938239 _14_ RTR  --- 7 message 32 [0 ffffffff b 800] ------- [11:255 -1:255 32 0] 
r 0.469938273 _21_ RTR  --- 7 message 32 [0 ffffffff b 800] ------- [11:255 -1:255 32 0] 
r 0.469938288 _20_ RTR  --- 7 message 32 [0 ffffffff b 800] ------- [11:255 -1:255 32 0] 
s 0.526482483 _27_ RTR  --- 8 message 32 [0 0 0 0] ------- [27:255 -1:255 32 0] 
r 0.529252817 _20_ RTR  --- 8 message 32 [0 ffffffff 1b 800] ------- [27:255 -1:255 32 0] 
r 0.529252837 _24_ RTR  --- 8 message 32 [0 ffffffff 1b 800] ------- [27:255 -1:255 32 0] 
r 0.529252854 _21_ RTR  --- 8 message 32 [0 ffffffff 1b 800] ------- [27:255 -1:255 32 0] 
r 0.529252893 _15_ RTR  --- 8 message 32 [0 ffffffff 1b 800] ------- [27:255 -1:255 32 0] 
r 0.529252894 _2_ RTR  --- 8 message 32 [0 ffffffff 1b 800] ------- [27:255 -1:255 32 0] 
r 0.529252915 _18_ RTR  --- 8 message 32 [0 ffffffff 1b 800] ------- [27:255 -1:255 32 0] 
r 0.529252943 _3_ RTR  --- 8 message 32 [0 ffffffff 1b 800] ------- [27:255 -1:255 32 0] 
r 0.529252963 _4_ RTR  --- 8 message 32 [0 ffffffff 1b 800] ------- [27:255 -1:255 32 0] 
r 0.529252997 _11_ RTR  --- 8 message 32 [0 ffffffff 1b 800] ------- [27:255 -1:255 32 0] 
r 0.529253025 _5_ RTR  --- 8 message 32 [0 ffffffff 1b 800] ------- [27:255 -1:255 32 0] 
r 0.529253025 _14_ RTR  --- 8 message 32 [0 ffffffff 1b 800] ------- [27:255 -1:255 32 0] 
r 0.529253039 _37_ RTR  --- 8 message 32 [0 ffffffff 1b 800] ------- [27:255 -1:255 32 0] 
r 0.529253092 _0_ RTR  --- 8 message 32 [0 ffffffff 1b 800] ------- [27:255 -1:255 32 0] 
r 0.529253118 _12_ RTR  --- 8 message 32 [0 ffffffff 1b 800] ------- [27:255 -1:255 32 0] 
r 0.529253133 _28_ RTR  --- 8 message 32 [0 ffffffff 1b 800] ------- [27:255 -1:255 32 0] 
r 0.529253180 _17_ RTR  --- 8 message 32 [0 ffffffff 1b 800] ------- [27:255 -1:255 32 0] 
r 0.529253203 _23_ RTR  --- 8 message 32 [0 ffffffff 1b 800] ------- [27:255 -1:255 32 0] 
r 0.529253208 _25_ RTR  --- 8 message 32 [0 ffffffff 1b 800] ------- [27:255 -1:255 32 0] 
r 0.529253218 _26_ RTR  --- 8 message 32 [0 ffffffff 1b 800] ------- [27:255 -1:255 32 0] 
r 0.529253280 _8_ RTR  --- 8 message 32 [0 ffffffff 1b 800] ------- [27:255 -1:255 32 0] 
s 0.534269246 _34_ RTR  --- 9 message 32 [0 0 0 0] ------- [34:255 -1:255 32 0] 
r 0.538639362 _9_ RTR  --- 9 message 32 [0 ffffffff 22 800] ------- [34:255 -1:255 32 0] 
r 0.538639382 _38_ RTR  --- 9 message 32 [0 ffffffff 22 800] ------- [34:255 -1:255 32 0] 
r 0.538639403 _13_ RTR  --- 9 message 32 [0 ffffffff 22 800] ------- [34:255 -1:255 32 0] 
r 0.538639500 _39_ RTR  --- 9 message 32 [0 ffffffff 22 800] ------- [34:255 -1:255 32 0] 
r 0.538639510 _33_ RTR  --- 9 message 32 [0 ffffffff 22 800] ------- [34:255 -1:255 32 0] 
r 0.538639522 _7_ RTR  --- 9 message 32 [0 ffffffff 22 800] ------- [34:255 -1:255 32 0] 
r 0.538639533 _1_ RTR  --- 9 message 32 [0 ffffffff 22 800] ------- [34:255 -1:255 32 0] 
r 0.538639610 _16_ RTR  --- 9 message 32 [0 ffffffff 22 800] ------- [34:255 -1:255 32 0] 
r 0.538639677 _29_ RTR  --- 9 message 32 [0 ffffffff 22 800] ------- [34:255 -1:255 32 0] 
r 0.538639711 _30_ RTR  --- 9 message 32 [0 ffffffff 22 800] ------- [34:255 -1:255 32 0] 
r 0.538639713 _12_ RTR  --- 9 message 32 [0 ffffffff 22 800] ------- [34:255 -1:255 32 0] 
r 0.538639732 _11_ RTR  --- 9 message 32 [0 ffffffff 22 800] ------- [34:255 -1:255 32 0] 
r 0.538639745 _8_ RTR  --- 9 message 32 [0 ffffffff 22 800] ------- [34:255 -1:255 32 0] 
r 0.538639797 _35_ RTR  --- 9 message 32 [0 ffffffff 22 800] ------- [34:255 -1:255 32 0] 
r 0.538639809 _36_ RTR  --- 9 message 32 [0 ffffffff 22 800] ------- [34:255 -1:255 32 0] 
r 0.538639955 _17_ RTR  --- 9 message 32 [0 ffffffff 22 800] ------- [34:255 -1:255 32 0] 
r 0.538640015 _2_ RTR  --- 9 message 32 [0 ffffffff 22 800] ------- [34:255 -1:255 32 0] 
s 0.561056360 _39_ RTR  --- 10 message 32 [0 0 0 0] ------- [39:255 -1:255 32 0] 
r 0.564786481 _38_ RTR  --- 10 message 32 [0 ffffffff 27 800] ------- [39:255 -1:255 32 0] 
r 0.564786522 _1_ RTR  --- 10 message 32 [0 ffffffff 27 800] ------- [39:255 -1:255 32 0] 
r 0.564786540 _33_ RTR  --- 10 message 32 [0 ffffffff 27 800] ------- [39:255 -1:255 32 0] 
r 0.564786595 _16_ RTR  --- 10 message 32 [0 ffffffff 27 800] ------- [39:255 -1:255 32 0] 
r 0.564786614 _34_ RTR  --- 10 message 32 [0 ffffffff 27 800] ------- [39:255 -1:255 32 0] 
r 0.564786679 _9_ RTR  --- 10 message 32 [0 ffffffff 27 800] ------- [39:255 -1:255 32 0] 
r 0.564786733 _13_ RTR  --- 10 message 32 [0 ffffffff 27 800] ------- [39:255 -1:255 32 0] 
r 0.564786734 _7_ RTR  --- 10 message 32 [0 ffffffff 27 800] ------- [39:255 -1:255 32 0] 
r 0.564786817 _29_ RTR  --- 10 message 32 [0 ffffffff 27 800] ------- [39:255 -1:255 32 0] 
r 0.564786923 _8_ RTR  --- 10 message 32 [0 ffffffff 27 800] ------- [39:255 -1:255 32 0] 
r 0.564786947 _35_ RTR  --- 10 message 32 [0 ffffffff 27 800] ------- [39:255 -1:255 32 0] 
r 0.564786975 _12_ RTR  --- 10 message 32 [0 ffffffff 27 800] ------- [39:255 -1:255 32 0] 
r 0.564787019 _30_ RTR  --- 10 message 32 [0 ffffffff 27 800] ------- [39:255 -1:255 32 0] 
r 0.564787063 _11_ RTR  --- 10 message 32 [0 ffffffff 27 800] ------- [39:255 -1:255 32 0] 
r 0.564787115 _36_ RTR  --- 10 message 32 [0 ffffffff 27 800] ------- [39:255 -1:255 32 0] 
s 0.684797127 _7_ RTR  --- 11 message 32 [0 0 0 0] ------- [7:255 -1:255 32 0] 
r 0.687247295 _29_ RTR  --- 11 message 32 [0 ffffffff 7 800] ------- [7:255 -1:255 32 0] 
r 0.687247303 _9_ RTR  --- 11 message 32 [0 ffffffff 7 800] ------- [7:255 -1:255 32 0] 
r 0.687247311 _13_ RTR  --- 11 message 32 [0 ffffffff 7 800] ------- [7:255 -1:255 32 0] 
r 0.687247349 _8_ RTR  --- 11 message 32 [0 ffffffff 7 800] ------- [7:255 -1:255 32 0] 
r 0.687247369 _12_ RTR  --- 11 message 32 [0 ffffffff 7 800] ------- [7:255 -1:255 32 0] 
r 0.687247389 _1_ RTR  --- 11 message 32 [0 ffffffff 7 800] ------- [7:255 -1:255 32 0] 
r 0.687247403 _34_ RTR  --- 11 message 32 [0 ffffffff 7 800] ------- [7:255 -1:255 32 0] 
r 0.687247403 _35_ RTR  --- 11 message 32 [0 ffffffff 7 800] ------- [7:255 -1:255 32 0] 
r 0.687247415 _38_ RTR  --- 11 message 32 [0 ffffffff 7 800] ------- [7:255 -1:255 32 0] 
r 0.687247501 _39_ RTR  --- 11 message 32 [0 ffffffff 7 800] ------- [7:255 -1:255 32 0] 
r 0.687247508 _11_ RTR  --- 11 message 32 [0 ffffffff 7 800] ------- [7:255 -1:255 32 0] 
r 0.687247617 _33_ RTR  --- 11 message 32 [0 ffffffff 7 800] ------- [7:255 -1:255 32 0] 
r 0.687247677 _2_ RTR  --- 11 message 32 [0 ffffffff 7 800] ------- [7:255 -1:255 32 0] 
r 0.687247708 _16_ RTR  --- 11 message 32 [0 ffffffff 7 800] ------- [7:255 -1:255 32 0] 
r 0.687247781 _37_ RTR  --- 11 message 32 [0 ffffffff 7 800] ------- [7:255 -1:255 32 0] 
r 0.687247827 _30_ RTR  --- 11 message 32 [0 ffffffff 7 800] ------- [7:255 -1:255 32 0] 
r 0.687247894 _5_ RTR  --- 11 message 32 [0 ffffffff 7 800] ------- [7:255 -1:255 32 0] 
r 0.687247921 _17_ RTR  --- 11 message 32 [0 ffffffff 7 800] ------- [7:255 -1:255 32 0] 
r 0.687247921 _36_ RTR  --- 11 message 32 [0 ffffffff 7 800] ------- [7:255 -1:255 32 0] 
s 0.764173693 _35_ RTR  --- 12 message 32 [0 0 0 0] ------- [35:255 -1:255 32 0] 
r 0.768543768 _8_ RTR  --- 12 message 32 [0 ffffffff 23 800] ------- [35:255 -1:255 32 0] 
r 0.768543823 _29_ RTR  --- 12 message 32 [0 ffffffff 23 800] ------- [35:255 -1:255 32 0] 
r 0.768543957 _12_ RTR  --- 12 message 32 [0 ffffffff 23 800] ------- [35:255 -1:255 32 0] 
r 0.768543969 _7_ RTR  --- 12 message 32 [0 ffffffff 23 800] ------- [35:255 -1:255 32 0] 
r 0.768544124 _1_ RTR  --- 12 message 32 [0 ffffffff 23 800] ------- [35:255 -1:255 32 0] 
r 0.768544144 _13_ RTR  --- 12 message 32 [0 ffffffff 23 800] ------- [35:255 -1:255 32 0] 
r 0.768544145 _9_ RTR  --- 12 message 32 [0 ffffffff 23 800] ------- [35:255 -1:255 32 0] 
r 0.768544146 _2_ RTR  --- 12 message 32 [0 ffffffff 23 800] ------- [35:255 -1:255 32 0] 
r 0.768544158 _37_ RTR  --- 12 message 32 [0 ffffffff 23 800] ------- [35:255 -1:255 32 0] 
r 0.768544184 _11_ RTR  --- 12 message 32 [0 ffffffff 23 800] ------- [35:255 -1:255 32 0] 
r 0.768544228 _38_ RTR  --- 12 message 32 [0 ffffffff 23 800] ------- [35:255 -1:255 32 0] 
r 0.768544244 _34_ RTR  --- 12 message 32 [0 ffffffff 23 800] ------- [35:255 -1:255 32 0] 
r 0.768544273 _5_ RTR  --- 12 message 32 [0 ffffffff 23 800] ------- [35:255 -1:255 32 0] 
r 0.768544279 _39_ RTR  --- 12 message 32 [0 ffffffff 23 800] ------- [35:255 -1:255 32 0] 
r 0.768544430 _33_ RTR  --- 12 message 32 [0 ffffffff 23 800] ------- [35:255 -1:255 32 0] 
r 0.768544499 _31_ RTR  --- 12 message 32 [0 ffffffff 23 800] ------- [35:255 -1:255 32 0] 
r 0.768544509 _16_ RTR  --- 12 message 32 [0 ffffffff 23 800] ------- [35:255 -1:255 32 0] 
r 0.768544520 _19_ RTR  --- 12 message 32 [0 ffffffff 23 800] ------- [35:255 -1:255 32 0] 
s 0.875803877 _10_ RTR  --- 13 message 32 [0 0 0 0] ------- [10:255 -1:255 32 0] 
r 0.878253978 _22_ RTR  --- 13 message 32 [0 ffffffff a 800] ------- [10:255 -1:255 32 0] 
r 0.878254541 _36_ RTR  --- 13 message 32 [0 ffffffff a 800] ------- [10:255 -1:255 32 0] 
r 0.878254542 _17_ RTR  --- 13 message 32 [0 ffffffff a 800] ------- [10:255 -1:255 32 0] 
r 0.878254579 _0_ RTR  --- 13 message 32 [0 ffffffff a 800] ------- [10:255 -1:255 32 0] 
r 0.878254628 _6_ RTR  --- 13 message 32 [0 ffffffff a 800] ------- [10:255 -1:255 32 0] 
r 0.878254633 _30_ RTR  --- 13 message 32 [0 ffffffff a 800] ------- [10:255 -1:255 32 0] 
r 0.878254643 _32_ RTR  --- 13 message 32 [0 ffffffff a 800] ------- [10:255 -1:255 32 0] 
s 0.884084341 _12_ RTR  --- 14 message 32 [0 0 0 0] ------- [12:255 -1:255 32 0] 
r 0.886534535 _8_ RTR  --- 14 message 32 [0 ffffffff c 800] ------- [12:255 -1:255 32 0] 
r 0.886534569 _11_ RTR  --- 14 message 32 [0 ffffffff c 800] ------- [12:255 -1:255 32 0] 
r 0.886534583 _7_ RTR  --- 14 message 32 [0 ffffffff c 800] ------- [12:255 -1:255 32 0] 
r 0.886534606 _35_ RTR  --- 14 message 32 [0 ffffffff c 800] ------- [12:255 -1:255 32 0] 
r 0.886534612 _29_ RTR  --- 14 message 32 [0 ffffffff c 800] ------- [12:255 -1:255 32 0] 
r 0.886534652 _2_ RTR  --- 14 message 32 [0 ffffffff c 800] ------- [12:255 -1:255 32 0] 
r 0.886534659 _13_ RTR  --- 14 message 32 [0 ffffffff c 800] ------- [12:255 -1:255 32 0] 
r 0.886534692 _9_ RTR  --- 14 message 32 [0 ffffffff c 800] ------- [12:255 -1:255 32 0] 
r 0.886534784 _37_ RTR  --- 14 message 32 [0 ffffffff c 800] ------- [12:255 -1:255 32 0] 
r 0.886534808 _34_ RTR  --- 14 message 32 [0 ffffffff c 800] ------- [12:255 -1:255 32 0] 
r 0.886534842 _1_ RTR  --- 14 message 32 [0 ffffffff c 800] ------- [12:255 -1:255 32 0] 
r 0.886534860 _38_ RTR  --- 14 message 32 [0 ffffffff c 800] ------- [12:255 -1:255 32 0] 
r 0.886534891 _5_ RTR  --- 14 message 32 [0 ffffffff c 800] ------- [12:255 -1:255 32 0] 
r 0.886534956 _39_ RTR  --- 14 message 32 [0 ffffffff c 800] ------- [12:255 -1:255 32 0] 
r 0.886534976 _27_ RTR  --- 14 message 32 [0 ffffffff c 800] ------- [12:255 -1:255 32 0] 
r 0.886535055 _33_ RTR  --- 14 message 32 [0 ffffffff c 800] ------- [12:255 -1:255 32 0] 
r 0.886535071 _17_ RTR  --- 14 message 32 [0 ffffffff c 800] ------- [12:255 -1:255 32 0] 
r 0.886535133 _30_ RTR  --- 14 message 32 [0 ffffffff c 800] ------- [12:255 -1:255 32 0] 
r 0.886535151 _16_ RTR  --- 14 message 32 [0 ffffffff c 800] ------- [12:255 -1:255 32 0] 
s 0.924998535 _14_ RTR  --- 15 message 32 [0 0 0 0] ------- [14:255 -1:255 32 0] 
r 0.928408679 _3_ RTR  --- 15 message 32 [0 ffffffff e 800] ------- [14:255 -1:255 32 0] 
r 0.928408740 _26_ RTR  --- 15 message 32 [0 ffffffff e 800] ------- [14:255 -1:255 32 0] 
r 0.928408779 _23_ RTR  --- 15 message 32 [0 ffffffff e 800] ------- [14:255 -1:255 32 0] 
r 0.928408817 _0_ RTR  --- 15 message 32 [0 ffffffff e 800] ------- [14:255 -1:255 32 0] 
r 0.928408865 _6_ RTR  --- 15 message 32 [0 ffffffff e 800] ------- [14:255 -1:255 32 0] 
r 0.928408866 _32_ RTR  --- 15 message 32 [0 ffffffff e 800] ------- [14:255 -1:255 32 0] 
r 0.928409011 _24_ RTR  --- 15 message 32 [0 ffffffff e 800] ------- [14:255 -1:255 32 0] 
r 0.928409042 _17_ RTR  --- 15 message 32 [0 ffffffff e 800] ------- [14:255 -1:255 32 0] 
r 0.928409056 _15_ RTR  --- 15 message 32 [0 ffffffff e 800] ------- [14:255 -1:255 32 0] 
r 0.928409077 _27_ RTR  --- 15 message 32 [0 ffffffff e 800] ------- [14:255 -1:255 32 0] 
r 0.928409131 _18_ RTR  --- 15 message 32 [0 ffffffff e 800] ------- [14:255 -1:255 32 0] 
r 0.928409132 _4_ RTR  --- 15 message 32 [0 ffffffff e 800] ------- [14:255 -1:255 32 0] 
r 0.928409136 _25_ RTR  --- 15 message 32 [0 ffffffff e 800] ------- [14:255 -1:255 32 0] 
r 0.928409235 _28_ RTR  --- 15 message 32 [0 ffffffff e 800] ------- [14:255 -1:255 32 0] 
r 0.928409296 _20_ RTR  --- 15 message 32 [0 ffffffff e 800] ------- [14:255 -1:255 32 0] 
r 0.928409302 _11_ RTR  --- 15 message 32 [0 ffffffff e 800] ------- [14:255 -1:255 32 0] 
r 0.928409344 _22_ RTR  --- 15 message 32 [0 ffffffff e 800] ------- [14:255 -1:255 32 0] 
s 0.961796440 _28_ RTR  --- 16 message 32 [0 0 0 0] ------- [28:255 -1:255 32 0] 
r 0.966486610 _4_ RTR  --- 16 message 32 [0 ffffffff 1c 800] ------- [28:255 -1:255 32 0] 
r 0.966486657 _25_ RTR  --- 16 message 32 [0 ffffffff 1c 800] ------- [28:255 -1:255 32 0] 
r 0.966486660 _18_ RTR  --- 16 message 32 [0 ffffffff 1c 800] ------- [28:255 -1:255 32 0] 
r 0.966486687 _15_ RTR  --- 16 message 32 [0 ffffffff 1c 800] ------- [28:255 -1:255 32 0] 
r 0.966486751 _24_ RTR  --- 16 message 32 [0 ffffffff 1c 800] ------- [28:255 -1:255 32 0] 
r 0.966486930 _20_ RTR  --- 16 message 32 [0 ffffffff 1c 800] ------- [28:255 -1:255 32 0] 
r 0.966487045 _21_ RTR  --- 16 message 32 [0 ffffffff 1c 800] ------- [28:255 -1:255 32 0] 
r 0.966487085 _23_ RTR  --- 16 message 32 [0 ffffffff 1c 800] ------- [28:255 -1:255 32 0] 
r 0.966487089 _27_ RTR  --- 16 message 32 [0 ffffffff 1c 800] ------- [28:255 -1:255 32 0] 
r 0.966487140 _14_ RTR  --- 16 message 32 [0 ffffffff 1c 800] ------- [28:255 -1:255 32 0] 
r 0.966487187 _26_ RTR  --- 16 message 32 [0 ffffffff 1c 800] ------- [28:255 -1:255 32 0] 
r 0.966487202 _3_ RTR  --- 16 message 32 [0 ffffffff 1c 800] ------- [28:255 -1:255 32 0] 
M 1.00000 0 (144.00, 302.00, 0.00), (448.00, 283.00), 4.00
M 1.00000 1 (482.00, 385.00, 0.00), (398.00, 443.00), 1.00
M 1.00000 2 (362.00, 176.00, 0.00), (90.00, 185.00), 2.00
M 1.00000 3 (142.00, 243.00, 0.00), (78.00, 106.00), 2.00
M 1.00000 4 (134.00, 53.00, 0.00), (309.00, 155.00), 1.00
M 1.00000 5 (397.00, 99.00, 0.00), (104.00, 88.00), 2.00
M 1.00000 6 (10.00, 268.00, 0.00), (496.00, 187.00), 4.00
M 1.00000 7 (429.00, 327.00, 0.00), (218.00, 9.00), 3.00
M 1.00000 8 (451.00, 264.00, 0.00), (231.00, 23.00), 3.00
M 1.00000 9 (397.00, 369.00, 0.00), (91.00, 247.00), 2.00
M 1.00000 10 (49.00, 490.00, 0.00), (160.00, 317.00), 3.00
M 1.00000 11 (326.00, 277.00, 0.00), (141.00, 408.00), 5.00
M 1.00000 12 (393.00, 264.00, 0.00), (50.00, 80.00), 1.00
M 1.00000 13 (384.00, 359.00, 0.00), (355.00, 324.00), 3.00
M 1.00000 14 (101.00, 229.00, 0.00), (286.00, 188.00), 2.00
M 1.00000 15 (141.00, 78.00, 0.00), (488.00, 262.00), 1.00
M 1.00000 16 (450.00, 500.00, 0.00), (187.00, 350.00), 4.00
M 1.00000 17 (192.00, 351.00, 0.00), (483.00, 491.00), 4.00
M 1.00000 18 (150.00, 57.00, 0.00), (169.00, 121.00), 2.00
M 1.00000 19 (481.00, 8.00, 0.00), (484.00, 85.00), 5.00
M 1.00000 20 (240.00, 48.00, 0.00), (118.00, 343.00), 1.00
M 1.00000 21 (276.00, 42.00, 0.00), (336.00, 203.00), 1.00
M 1.00000 22 (72.00, 470.00, 0.00), (59.00, 183.00), 1.00
M 1.00000 23 (33.00, 202.00, 0.00), (14.00, 109.00), 4.00
M 1.00000 24 (150.00, 95.00, 0.00), (51.00, 347.00), 4.00
M 1.00000 25 (44.00, 58.00, 0.00), (199.00, 3.00), 5.00
M 1.00000 26 (40.00, 236.00, 0.00), (463.00, 154.00), 3.00
M 1.00000 27 (242.00, 148.00, 0.00), (497.00, 136.00), 1.00
M 1.00000 28 (96.00, 19.00, 0.00), (167.00, 475.00), 4.00
M 1.00000 29 (468.00, 295.00, 0.00), (442.00, 389.00), 2.00
M 1.00000 30 (275.00, 470.00, 0.00), (293.00, 57.00), 4.00
M 1.00000 31 (492.00, 15.00, 0.00), (82.00, 297.00), 4.00
M 1.00000 32 (8.00, 264.00, 0.00), (403.00, 394.00), 5.00
M 1.00000 33 (435.00, 474.00, 0.00), (346.00, 425.00), 2.00
M 1.00000 34 (398.00, 404.00, 0.00), (110.00, 239.00), 1.00
M 1.00000 35 (472.00, 256.00, 0.00), (170.00, 343.00), 1.00
M 1.00000 36 (248.00, 482.00, 0.00), (348.00, 27.00), 3.00
M 1.00000 37 (408.00, 132.00, 0.00), (379.00, 118.00), 4.00
M 1.00000 38 (438.00, 413.00, 0.00), (254.00, 310.00), 1.00
M 1.00000 39 (469.00, 432.00, 0.00), (339.00, 478.00), 3.00
s 1.012757599 _22_ AGT  --- 17 tcp 40 [0 0 0 0] ------- [22:1 9:27 32 0] [0 0] 0 0
r 1.012757599 _22_ RTR  --- 17 tcp 40 [0 0 0 0] ------- [22:1 9:27 32 0] [0 0] 0 0
s 1.040953057 _24_ RTR  --- 18 message 32 [0 0 0 0] ------- [24:255 -1:255 32 0] 
r 1.044363121 _15_ RTR  --- 18 message 32 [0 ffffffff 18 800] ------- [24:255 -1:255 32 0] 
r 1.044363184 _18_ RTR  --- 18 message 32 [0 ffffffff 18 800] ------- [24:255 -1:255 32 0] 
r 1.044363207 _4_ RTR  --- 18 message 32 [0 ffffffff 18 800] ------- [24:255 -1:255 32 0] 
r 1.044363368 _28_ RTR  --- 18 message 32 [0 ffffffff 18 800] ------- [24:255 -1:255 32 0] 
r 1.044363396 _20_ RTR  --- 18 message 32 [0 ffffffff 18 800] ------- [24:255 -1:255 32 0] 
r 1.044363411 _27_ RTR  --- 18 message 32 [0 ffffffff 18 800] ------- [24:255 -1:255 32 0] 
r 1.044363431 _25_ RTR  --- 18 message 32 [0 ffffffff 18 800] ------- [24:255 -1:255 32 0] 
r 1.044363513 _21_ RTR  --- 18 message 32 [0 ffffffff 18 800] ------- [24:255 -1:255 32 0] 
r 1.044363532 _14_ RTR  --- 18 message 32 [0 ffffffff 18 800] ------- [24:255 -1:255 32 0] 
r 1.044363550 _3_ RTR  --- 18 message 32 [0 ffffffff 18 800] ------- [24:255 -1:255 32 0] 
r 1.044363585 _23_ RTR  --- 18 message 32 [0 ffffffff 18 800] ------- [24:255 -1:255 32 0] 
r 1.044363652 _26_ RTR  --- 18 message 32 [0 ffffffff 18 800] ------- [24:255 -1:255 32 0] 
r 1.044363747 _0_ RTR  --- 18 message 32 [0 ffffffff 18 800] ------- [24:255 -1:255 32 0] 
r 1.044363792 _32_ RTR  --- 18 message 32 [0 ffffffff 18 800] ------- [24:255 -1:255 32 0] 
r 1.044363798 _6_ RTR  --- 18 message 32 [0 ffffffff 18 800] ------- [24:255 -1:255 32 0] 
r 1.044363813 _2_ RTR  --- 18 message 32 [0 ffffffff 18 800] ------- [24:255 -1:255 32 0] 
r 1.044363880 _5_ RTR  --- 18 message 32 [0 ffffffff 18 800] ------- [24:255 -1:255 32 0] 
s 1.076710629 _21_ RTR  --- 19 message 32 [0 0 0 0] ------- [21:255 -1:255 32 0] 
s 1.079263760 _37_ AGT  --- 20 tcp 40 [0 0 0 0] ------- [37:0 9:21 32 0] [0 0] 0 0
r 1.079263760 _37_ RTR  --- 20 tcp 40 [0 0 0 0] ------- [37:0 9:21 32 0] [0 0] 0 0
r 1.081400751 _20_ RTR  --- 19 message 32 [0 ffffffff 15 800] ------- [21:255 -1:255 32 0] 