s 0.036328457 _11_ RTR  --- 0 message 32 [0 0 0 0] ------- [11:255 -1:255 32 0] 
r 0.038778912 _12_ RTR  --- 0 message 32 [0 ffffffff b 800] ------- [11:255 -1:255 32 0] 
r 0.038779129 _13_ RTR  --- 0 message 32 [0 ffffffff b 800] ------- [11:255 -1:255 32 0] 
r 0.038779173 _2_ RTR  --- 0 message 32 [0 ffffffff b 800] ------- [11:255 -1:255 32 0] 
r 0.038779222 _7_ RTR  --- 0 message 32 [0 ffffffff b 800] ------- [11:255 -1:255 32 0] 
r 0.038779232 _9_ RTR  --- 0 message 32 [0 ffffffff b 800] ------- [11:255 -1:255 32 0] 
s 0.073282045 _4_ RTR  --- 1 message 32 [0 0 0 0] ------- [4:255 -1:255 32 0] 
r 0.076692155 _18_ RTR  --- 1 message 32 [0 ffffffff 4 800] ------- [4:255 -1:255 32 0] 
r 0.076692219 _15_ RTR  --- 1 message 32 [0 ffffffff 4 800] ------- [4:255 -1:255 32 0] 
r 0.076692343 _24_ RTR  --- 1 message 32 [0 ffffffff 4 800] ------- [4:255 -1:255 32 0] 
r 0.076692385 _28_ RTR  --- 1 message 32 [0 ffffffff 4 800] ------- [4:255 -1:255 32 0] 
r 0.076692642 _25_ RTR  --- 1 message 32 [0 ffffffff 4 800] ------- [4:255 -1:255 32 0] 
r 0.076692753 _20_ RTR  --- 1 message 32 [0 ffffffff 4 800] ------- [4:255 -1:255 32 0] 
s 0.088584275 _31_ RTR  --- 2 message 32 [0 0 0 0] ------- [31:255 -1:255 32 0] 
r 0.092634357 _19_ RTR  --- 2 message 32 [0 ffffffff 1f 800] ------- [31:255 -1:255 32 0] 
s 0.126846076 _36_ RTR  --- 3 message 32 [0 0 0 0] ------- [36:255 -1:255 32 0] 
s 0.129642904 _28_ RTR  --- 4 message 32 [0 0 0 0] ------- [28:255 -1:255 32 0] 
r 0.130896273 _30_ RTR  --- 3 message 32 [0 ffffffff 24 800] ------- [36:255 -1:255 32 0] 
r 0.133373244 _4_ RTR  --- 4 message 32 [0 ffffffff 1c 800] ------- [28:255 -1:255 32 0] 
r 0.133373333 _25_ RTR  --- 4 message 32 [0 ffffffff 1c 800] ------- [28:255 -1:255 32 0] 
r 0.133373344 _18_ RTR  --- 4 message 32 [0 ffffffff 1c 800] ------- [28:255 -1:255 32 0] 
r 0.133373401 _15_ RTR  --- 4 message 32 [0 ffffffff 1c 800] ------- [28:255 -1:255 32 0] 
r 0.133373525 _24_ RTR  --- 4 message 32 [0 ffffffff 1c 800] ------- [28:255 -1:255 32 0] 
s 0.247164037 _15_ RTR  --- 5 message 32 [0 0 0 0] ------- [15:255 -1:255 32 0] 
r 0.250574162 _24_ RTR  --- 5 message 32 [0 ffffffff f 800] ------- [15:255 -1:255 32 0] 
r 0.250574188 _18_ RTR  --- 5 message 32 [0 ffffffff f 800] ------- [15:255 -1:255 32 0] 
r 0.250574211 _4_ RTR  --- 5 message 32 [0 ffffffff f 800] ------- [15:255 -1:255 32 0] 
r 0.250574533 _28_ RTR  --- 5 message 32 [0 ffffffff f 800] ------- [15:255 -1:255 32 0] 
r 0.250574698 _25_ RTR  --- 5 message 32 [0 ffffffff f 800] ------- [15:255 -1:255 32 0] 
r 0.250574724 _20_ RTR  --- 5 message 32 [0 ffffffff f 800] ------- [15:255 -1:255 32 0] 
r 0.250574854 _27_ RTR  --- 5 message 32 [0 ffffffff f 800] ------- [15:255 -1:255 32 0] 
s 0.321822596 _26_ RTR  --- 6 message 32 [0 0 0 0] ------- [26:255 -1:255 32 0] 
r 0.324272828 _23_ RTR  --- 6 message 32 [0 ffffffff 1a 800] ------- [26:255 -1:255 32 0] 
r 0.324272878 _32_ RTR  --- 6 message 32 [0 ffffffff 1a 800] ------- [26:255 -1:255 32 0] 
r 0.324272889 _6_ RTR  --- 6 message 32 [0 ffffffff 1a 800] ------- [26:255 -1:255 32 0] 
r 0.324273003 _14_ RTR  --- 6 message 32 [0 ffffffff 1a 800] ------- [26:255 -1:255 32 0] 
r 0.324273274 _3_ RTR  --- 6 message 32 [0 ffffffff 1a 800] ------- [26:255 -1:255 32 0] 
r 0.324273415 _0_ RTR  --- 6 message 32 [0 ffffffff 1a 800] ------- [26:255 -1:255 32 0] 
s 0.349191800 _3_ RTR  --- 7 message 32 [0 0 0 0] ------- [3:255 -1:255 32 0] 
r 0.352922089 _14_ RTR  --- 7 message 32 [0 ffffffff 3 800] ------- [3:255 -1:255 32 0] 
r 0.352922197 _0_ RTR  --- 7 message 32 [0 ffffffff 3 800] ------- [3:255 -1:255 32 0] 
r 0.352922478 _26_ RTR  --- 7 message 32 [0 ffffffff 3 800] ------- [3:255 -1:255 32 0] 
r 0.352922572 _23_ RTR  --- 7 message 32 [0 ffffffff 3 800] ------- [3:255 -1:255 32 0] 
r 0.352922594 _17_ RTR  --- 7 message 32 [0 ffffffff 3 800] ------- [3:255 -1:255 32 0] 
s 0.356017125 _29_ RTR  --- 8 message 32 [0 0 0 0] ------- [29:255 -1:255 32 0] 
r 0.359427358 _8_ RTR  --- 8 message 32 [0 ffffffff 1d 800] ------- [29:255 -1:255 32 0] 
r 0.359427383 _35_ RTR  --- 8 message 32 [0 ffffffff 1d 800] ------- [29:255 -1:255 32 0] 
r 0.359427463 _7_ RTR  --- 8 message 32 [0 ffffffff 1d 800] ------- [29:255 -1:255 32 0] 
r 0.359427666 _12_ RTR  --- 8 message 32 [0 ffffffff 1d 800] ------- [29:255 -1:255 32 0] 
r 0.359427733 _1_ RTR  --- 8 message 32 [0 ffffffff 1d 800] ------- [29:255 -1:255 32 0] 
r 0.359427809 _9_ RTR  --- 8 message 32 [0 ffffffff 1d 800] ------- [29:255 -1:255 32 0] 
r 0.359427826 _13_ RTR  --- 8 message 32 [0 ffffffff 1d 800] ------- [29:255 -1:255 32 0] 
r 0.359427936 _38_ RTR  --- 8 message 32 [0 ffffffff 1d 800] ------- [29:255 -1:255 32 0] 
s 0.421784672 _10_ RTR  --- 9 message 32 [0 0 0 0] ------- [10:255 -1:255 32 0] 
r 0.425514875 _22_ RTR  --- 9 message 32 [0 ffffffff a 800] ------- [10:255 -1:255 32 0] 
s 0.429968552 _17_ RTR  --- 10 message 32 [0 0 0 0] ------- [17:255 -1:255 32 0] 
r 0.434019007 _0_ RTR  --- 10 message 32 [0 ffffffff 11 800] ------- [17:255 -1:255 32 0] 
r 0.434019345 _3_ RTR  --- 10 message 32 [0 ffffffff 11 800] ------- [17:255 -1:255 32 0] 
s 0.454435365 _34_ RTR  --- 11 message 32 [0 0 0 0] ------- [34:255 -1:255 32 0] 
r 0.458165599 _9_ RTR  --- 11 message 32 [0 ffffffff 22 800] ------- [34:255 -1:255 32 0] 
r 0.458165639 _38_ RTR  --- 11 message 32 [0 ffffffff 22 800] ------- [34:255 -1:255 32 0] 
r 0.458165679 _13_ RTR  --- 11 message 32 [0 ffffffff 22 800] ------- [34:255 -1:255 32 0] 
r 0.458165871 _39_ RTR  --- 11 message 32 [0 ffffffff 22 800] ------- [34:255 -1:255 32 0] 
r 0.458165896 _33_ RTR  --- 11 message 32 [0 ffffffff 22 800] ------- [34:255 -1:255 32 0] 
r 0.458165914 _7_ RTR  --- 11 message 32 [0 ffffffff 22 800] ------- [34:255 -1:255 32 0] 
r 0.458165939 _1_ RTR  --- 11 message 32 [0 ffffffff 22 800] ------- [34:255 -1:255 32 0] 
r 0.458166094 _16_ RTR  --- 11 message 32 [0 ffffffff 22 800] ------- [34:255 -1:255 32 0] 
s 0.474672686 _27_ RTR  --- 12 message 32 [0 0 0 0] ------- [27:255 -1:255 32 0] 
r 0.477123353 _20_ RTR  --- 12 message 32 [0 ffffffff 1b 800] ------- [27:255 -1:255 32 0] 
r 0.477123394 _24_ RTR  --- 12 message 32 [0 ffffffff 1b 800] ------- [27:255 -1:255 32 0] 
r 0.477123428 _21_ RTR  --- 12 message 32 [0 ffffffff 1b 800] ------- [27:255 -1:255 32 0] 
r 0.477123504 _15_ RTR  --- 12 message 32 [0 ffffffff 1b 800] ------- [27:255 -1:255 32 0] 
r 0.477123508 _2_ RTR  --- 12 message 32 [0 ffffffff 1b 800] ------- [27:255 -1:255 32 0] 
s 0.671962519 _14_ RTR  --- 13 message 32 [0 0 0 0] ------- [14:255 -1:255 32 0] 
r 0.676652808 _3_ RTR  --- 13 message 32 [0 ffffffff e 800] ------- [14:255 -1:255 32 0] 
r 0.676652926 _26_ RTR  --- 13 message 32 [0 ffffffff e 800] ------- [14:255 -1:255 32 0] 
r 0.676653003 _23_ RTR  --- 13 message 32 [0 ffffffff e 800] ------- [14:255 -1:255 32 0] 
r 0.676653087 _0_ RTR  --- 13 message 32 [0 ffffffff e 800] ------- [14:255 -1:255 32 0] 
r 0.676653179 _32_ RTR  --- 13 message 32 [0 ffffffff e 800] ------- [14:255 -1:255 32 0] 
r 0.676653179 _6_ RTR  --- 13 message 32 [0 ffffffff e 800] ------- [14:255 -1:255 32 0] 
s 0.684226311 _37_ RTR  --- 14 message 32 [0 0 0 0] ------- [37:255 -1:255 32 0] 
r 0.688276541 _5_ RTR  --- 14 message 32 [0 ffffffff 25 800] ------- [37:255 -1:255 32 0] 
r 0.688276733 _2_ RTR  --- 14 message 32 [0 ffffffff 25 800] ------- [37:255 -1:255 32 0] 
s 0.820392893 _20_ RTR  --- 15 message 32 [0 0 0 0] ------- [20:255 -1:255 32 0] 
r 0.824123139 _21_ RTR  --- 15 message 32 [0 ffffffff 14 800] ------- [20:255 -1:255 32 0] 
r 0.824123496 _18_ RTR  --- 15 message 32 [0 ffffffff 14 800] ------- [20:255 -1:255 32 0] 
r 0.824123560 _27_ RTR  --- 15 message 32 [0 ffffffff 14 800] ------- [20:255 -1:255 32 0] 
r 0.824123567 _24_ RTR  --- 15 message 32 [0 ffffffff 14 800] ------- [20:255 -1:255 32 0] 
r 0.824123580 _15_ RTR  --- 15 message 32 [0 ffffffff 14 800] ------- [20:255 -1:255 32 0] 
r 0.824123600 _4_ RTR  --- 15 message 32 [0 ffffffff 14 800] ------- [20:255 -1:255 32 0] 
s 0.850035071 _19_ RTR  --- 16 message 32 [0 0 0 0] ------- [19:255 -1:255 32 0] 
r 0.854725153 _31_ RTR  --- 16 message 32 [0 ffffffff 13 800] ------- [19:255 -1:255 32 0] 
r 0.854725894 _5_ RTR  --- 16 message 32 [0 ffffffff 13 800] ------- [19:255 -1:255 32 0] 
s 0.869383415 _18_ RTR  --- 17 message 32 [0 0 0 0] ------- [18:255 -1:255 32 0] 
r 0.872793525 _4_ RTR  --- 17 message 32 [0 ffffffff 12 800] ------- [18:255 -1:255 32 0] 
r 0.872793566 _15_ RTR  --- 17 message 32 [0 ffffffff 12 800] ------- [18:255 -1:255 32 0] 
r 0.872793665 _24_ RTR  --- 17 message 32 [0 ffffffff 12 800] ------- [18:255 -1:255 32 0] 
r 0.872793856 _28_ RTR  --- 17 message 32 [0 ffffffff 12 800] ------- [18:255 -1:255 32 0] 
r 0.872794019 _20_ RTR  --- 17 message 32 [0 ffffffff 12 800] ------- [18:255 -1:255 32 0] 
r 0.872794119 _25_ RTR  --- 17 message 32 [0 ffffffff 12 800] ------- [18:255 -1:255 32 0] 
s 0.875205073 _13_ RTR  --- 18 message 32 [0 0 0 0] ------- [13:255 -1:255 32 0] 
r 0.877975179 _9_ RTR  --- 18 message 32 [0 ffffffff d 800] ------- [13:255 -1:255 32 0] 
r 0.877975387 _34_ RTR  --- 18 message 32 [0 ffffffff d 800] ------- [13:255 -1:255 32 0] 
r 0.877975436 _7_ RTR  --- 18 message 32 [0 ffffffff d 800] ------- [13:255 -1:255 32 0] 
r 0.877975582 _38_ RTR  --- 18 message 32 [0 ffffffff d 800] ------- [13:255 -1:255 32 0] 
r 0.877975709 _12_ RTR  --- 18 message 32 [0 ffffffff d 800] ------- [13:255 -1:255 32 0] 
r 0.877975744 _11_ RTR  --- 18 message 32 [0 ffffffff d 800] ------- [13:255 -1:255 32 0] 
r 0.877975749 _1_ RTR  --- 18 message 32 [0 ffffffff d 800] ------- [13:255 -1:255 32 0] 
r 0.877975774 _29_ RTR  --- 18 message 32 [0 ffffffff d 800] ------- [13:255 -1:255 32 0] 
r 0.877975817 _39_ RTR  --- 18 message 32 [0 ffffffff d 800] ------- [13:255 -1:255 32 0] 
r 0.877975843 _8_ RTR  --- 18 message 32 [0 ffffffff d 800] ------- [13:255 -1:255 32 0] 
s 0.884601285 _12_ RTR  --- 19 message 32 [0 0 0 0] ------- [12:255 -1:255 32 0] 
r 0.888971671 _8_ RTR  --- 19 message 32 [0 ffffffff c 800] ------- [12:255 -1:255 32 0] 
r 0.888971740 _11_ RTR  --- 19 message 32 [0 ffffffff c 800] ------- [12:255 -1:255 32 0] 
r 0.888971771 _7_ RTR  --- 19 message 32 [0 ffffffff c 800] ------- [12:255 -1:255 32 0] 
r 0.888971814 _35_ RTR  --- 19 message 32 [0 ffffffff c 800] ------- [12:255 -1:255 32 0] 
r 0.888971826 _29_ RTR  --- 19 message 32 [0 ffffffff c 800] ------- [12:255 -1:255 32 0] 
r 0.888971906 _2_ RTR  --- 19 message 32 [0 ffffffff c 800] ------- [12:255 -1:255 32 0] 
r 0.888971921 _13_ RTR  --- 19 message 32 [0 ffffffff c 800] ------- [12:255 -1:255 32 0] 
r 0.888971985 _9_ RTR  --- 19 message 32 [0 ffffffff c 800] ------- [12:255 -1:255 32 0] 
s 0.902722248 _9_ RTR  --- 20 message 32 [0 0 0 0] ------- [9:255 -1:255 32 0] 
r 0.906452355 _13_ RTR  --- 20 message 32 [0 ffffffff 9 800] ------- [9:255 -1:255 32 0] 
r 0.906452482 _34_ RTR  --- 20 message 32 [0 ffffffff 9 800] ------- [9:255 -1:255 32 0] 
r 0.906452598 _7_ RTR  --- 20 message 32 [0 ffffffff 9 800] ------- [9:255 -1:255 32 0] 
r 0.906452652 _38_ RTR  --- 20 message 32 [0 ffffffff 9 800] ------- [9:255 -1:255 32 0] 
r 0.906452828 _1_ RTR  --- 20 message 32 [0 ffffffff 9 800] ------- [9:255 -1:255 32 0] 
r 0.906452886 _39_ RTR  --- 20 message 32 [0 ffffffff 9 800] ------- [9:255 -1:255 32 0] 
r 0.906452932 _29_ RTR  --- 20 message 32 [0 ffffffff 9 800] ------- [9:255 -1:255 32 0] 
r 0.906452949 _12_ RTR  --- 20 message 32 [0 ffffffff 9 800] ------- [9:255 -1:255 32 0] 
r 0.906452997 _33_ RTR  --- 20 message 32 [0 ffffffff 9 800] ------- [9:255 -1:255 32 0] 
r 0.906453023 _11_ RTR  --- 20 message 32 [0 ffffffff 9 800] ------- [9:255 -1:255 32 0] 
r 0.906453033 _8_ RTR  --- 20 message 32 [0 ffffffff 9 800] ------- [9:255 -1:255 32 0] 
s 0.974422618 _22_ RTR  --- 21 message 32 [0 0 0 0] ------- [22:255 -1:255 32 0] 
r 0.976872821 _10_ RTR  --- 21 message 32 [0 ffffffff 16 800] ------- [22:255 -1:255 32 0] 
M 1.00000 0 (287.00, 604.00, 0.00), (895.00, 565.00), 4.00
M 1.00000 1 (964.00, 769.00, 0.00), (796.00, 886.00), 1.00
M 1.00000 2 (724.00, 351.00, 0.00), (179.00, 369.00), 2.00
M 1.00000 3 (283.00, 485.00, 0.00), (156.00, 212.00), 2.00
M 1.00000 4 (267.00, 106.00, 0.00), (618.00, 309.00), 1.00
M 1.00000 5 (794.00, 197.00, 0.00), (208.00, 176.00), 2.00
M 1.00000 6 (19.00, 535.00, 0.00), (991.00, 374.00), 4.00
M 1.00000 7 (857.00, 654.00, 0.00), (436.00, 17.00), 3.00
M 1.00000 8 (901.00, 528.00, 0.00), (462.00, 46.00), 3.00
M 1.00000 9 (793.00, 737.00, 0.00), (181.00, 494.00), 2.00
M 1.00000 10 (98.00, 980.00, 0.00), (320.00, 634.00), 3.00
M 1.00000 11 (651.00, 553.00, 0.00), (281.00, 816.00), 5.00
M 1.00000 12 (785.00, 527.00, 0.00), (100.00, 159.00), 1.00
M 1.00000 13 (768.00, 717.00, 0.00), (710.00, 647.00), 3.00
M 1.00000 14 (201.00, 457.00, 0.00), (571.00, 375.00), 2.00
M 1.00000 15 (282.00, 156.00, 0.00), (976.00, 523.00), 1.00
M 1.00000 16 (899.00, 1000.00, 0.00), (373.00, 700.00), 4.00
M 1.00000 17 (383.00, 701.00, 0.00), (966.00, 981.00), 4.00
M 1.00000 18 (299.00, 114.00, 0.00), (337.00, 241.00), 2.00
M 1.00000 19 (962.00, 16.00, 0.00), (967.00, 170.00), 5.00
M 1.00000 20 (479.00, 95.00, 0.00), (235.00, 685.00), 1.00
M 1.00000 21 (552.00, 83.00, 0.00), (671.00, 405.00), 1.00
M 1.00000 22 (143.00, 939.00, 0.00), (117.00, 366.00), 1.00
M 1.00000 23 (66.00, 404.00, 0.00), (27.00, 217.00), 4.00
M 1.00000 24 (300.00, 189.00, 0.00), (101.00, 694.00), 4.00
M 1.00000 25 (88.00, 115.00, 0.00), (397.00, 5.00), 5.00
M 1.00000 26 (80.00, 472.00, 0.00), (925.00, 307.00), 3.00
M 1.00000 27 (484.00, 295.00, 0.00), (993.00, 272.00), 1.00
M 1.00000 28 (191.00, 38.00, 0.00), (334.00, 949.00), 4.00
M 1.00000 29 (935.00, 589.00, 0.00), (884.00, 777.00), 2.00
M 1.00000 30 (549.00, 940.00, 0.00), (585.00, 113.00), 4.00
M 1.00000 31 (983.00, 29.00, 0.00), (163.00, 594.00), 4.00
M 1.00000 32 (16.00, 527.00, 0.00), (805.00, 788.00), 5.00
M 1.00000 33 (870.00, 948.00, 0.00), (692.00, 850.00), 2.00
M 1.00000 34 (796.00, 807.00, 0.00), (219.00, 478.00), 1.00
M 1.00000 35 (943.00, 512.00, 0.00), (339.00, 685.00), 1.00
M 1.00000 36 (495.00, 964.00, 0.00), (696.00, 54.00), 3.00
M 1.00000 37 (815.00, 263.00, 0.00), (758.00, 235.00), 4.00
M 1.00000 38 (876.00, 825.00, 0.00), (507.00, 619.00), 1.00
M 1.00000 39 (937.00, 863.00, 0.00), (678.00, 956.00), 3.00
s 1.012825328 _13_ AGT  --- 22 tcp 40 [0 0 0 0] ------- [13:0 9:7 32 0] [0 0] 0 0
r 1.012825328 _13_ RTR  --- 22 tcp 40 [0 0 0 0] ------- [13:0 9:7 32 0] [0 0] 0 0
s 1.012825328 _13_ RTR  --- 22 tcp 60 [0 0 0 0] ------- [13:0 9:7 32 9] [0 0] 0 0
r 1.025953648 _9_ AGT  --- 22 tcp 60 [0 9 d 800] ------- [13:0 9:7 32 9] [0 0] 1 0
s 1.025953648 _9_ AGT  --- 23 ack 40 [0 0 0 0] ------- [9:7 13:0 32 0] [0 0] 0 0
r 1.025953648 _9_ RTR  --- 23 ack 40 [0 0 0 0] ------- [9:7 13:0 32 0] [0 0] 0 0
s 1.025953648 _9_ RTR  --- 23 ack 60 [0 0 0 0] ------- [9:7 13:0 32 13] [0 0] 0 0
r 1.029843755 _13_ AGT  --- 23 ack 60 [0 d 9 800] ------- [9:7 13:0 32 13] [0 0] 1 0
s 1.029843755 _13_ AGT  --- 24 tcp 1040 [0 0 0 0] ------- [13:0 9:7 32 0] [1 0] 0 0
r 1.029843755 _13_ RTR  --- 24 tcp 1040 [0 0 0 0] ------- [13:0 9:7 32 0] [1 0] 0 0
s 1.029843755 _13_ RTR  --- 24 tcp 1060 [0 0 0 0] ------- [13:0 9:7 32 9] [1 0] 0 0
r 1.034245862 _9_ AGT  --- 24 tcp 36 [0 9 d 800] ------- [13:0 9:7 32 9] [1 0] 1 0
s 1.034245862 _9_ AGT  --- 25 ack 40 [0 0 0 0] ------- [9:7 13:0 32 0] [1 0] 0 0
r 1.034245862 _9_ RTR  --- 25 ack 40 [0 0 0 0] ------- [9:7 13:0 32 0] [1 0] 0 0
s 1.034245862 _9_ RTR  --- 25 ack 60 [0 0 0 0] ------- [9:7 13:0 32 13] [1 0] 0 0
r 1.038775969 _13_ AGT  --- 25 ack 60 [0 d 9 800] ------- [9:7 13:0 32 13] [1 0] 1 0
s 1.049263177 _8_ RTR  --- 26 message 32 [0 0 0 0] ------- [8:255 -1:255 32 0] 
r 1.052673326 _35_ RTR  --- 26 message 32 [0 ffffffff 8 800] ------- [8:255 -1:255 32 0] 
r 1.052673410 _29_ RTR  --- 26 message 32 [0 ffffffff 8 800] ------- [8:255 -1:255 32 0] 
r 1.052673563 _12_ RTR  --- 26 message 32 [0 ffffffff 8 800] ------- [8:255 -1:255 32 0] 
r 1.052673621 _7_ RTR  --- 26 message 32 [0 ffffffff 8 800] ------- [8:255 -1:255 32 0] 
r 1.052673947 _13_ RTR  --- 26 message 32 [0 ffffffff 8 800] ------- [8:255 -1:255 32 0] 
r 1.052673961 _9_ RTR  --- 26 message 32 [0 ffffffff 8 800] ------- [8:255 -1:255 32 0] 
r 1.052674007 _1_ RTR  --- 26 message 32 [0 ffffffff 8 800] ------- [8:255 -1:255 32 0] 
s 1.053083472 _20_ AGT  --- 27 tcp 40 [0 0 0 0] ------- [20:1 9:14 32 0] [0 0] 0 0
r 1.053083472 _20_ RTR  --- 27 tcp 40 [0 0 0 0] ------- [20:1 9:14 32 0] [0 0] 0 0
s 1.107219846 _34_ AGT  --- 28 tcp 40 [0 0 0 0] ------- [34:0 9:3 32 0] [0 0] 0 0
r 1.107219846 _34_ RTR  --- 28 tcp 40 [0 0 0 0] ------- [34:0 9:3 32 0] [0 0] 0 0
s 1.107219846 _34_ RTR  --- 28 tcp 60 [0 0 0 0] ------- [34:0 9:3 32 9] [0 0] 0 0
r 1.121628547 _9_ AGT  --- 28 tcp 60 [0 9 22 800] ------- [34:0 9:3 32 9] [0 0] 1 0
s 1.121628547 _9_ AGT  --- 29 ack 40 [0 0 0 0] ------- [9:3 34:0 32 0] [0 0] 0 0
r 1.121628547 _9_ RTR  --- 29 ack 40 [0 0 0 0] ------- [9:3 34:0 32 0] [0 0] 0 0
s 1.121628547 _9_ RTR  --- 29 ack 60 [0 0 0 0] ------- [9:3 34:0 32 34] [0 0] 0 0
r 1.126158780 _34_ AGT  --- 29 ack 60 [0 22 9 800] ------- [9:3 34:0 32 34] [0 0] 1 0
s 1.126158780 _34_ AGT  --- 30 tcp 1040 [0 0 0 0] ------- [34:0 9:3 32 0] [1 0] 0 0
r 1.126158780 _34_ RTR  --- 30 tcp 1040 [0 0 0 0] ------- [34:0 9:3 32 0] [1 0] 0 0
s 1.126158780 _34_ RTR  --- 30 tcp 1060 [0 0 0 0] ------- [34:0 9:3 32 9] [1 0] 0 0
r 1.131201014 _9_ AGT  --- 30 tcp 36 [0 9 22 800] ------- [34:0 9:3 32 9] [1 0] 1 0
s 1.131201014 _9_ AGT  --- 31 ack 40 [0 0 0 0] ------- [9:3 34:0 32 0] [1 0] 0 0
r 1.131201014 _9_ RTR  --- 31 ack 40 [0 0 0 0] ------- [9:3 34:0 32 0] [1 0] 0 0
s 1.131201014 _9_ RTR  --- 31 ack 60 [0 0 0 0] ------- [9:3 34:0 32 34] [1 0] 0 0
r 1.135731248 _34_ AGT  --- 31 ack 60 [0 22 9 800] ------- [9:3 34:0 32 34] [1 0] 1 0
s 1.157653604 _32_ RTR  --- 32 message 32 [0 0 0 0] ------- [32:255 -1:255 32 0] 
r 1.162343631 _6_ RTR  --- 32 message 32 [0 ffffffff 20 800] ------- [32:255 -1:255 32 0] 
r 1.162343885 _26_ RTR  --- 32 message 32 [0 ffffffff 20 800] ------- [32:255 -1:255 32 0] 
r 1.162344048 _23_ RTR  --- 32 message 32 [0 ffffffff 20 800] ------- [32:255 -1:255 32 0] 
r 1.162344262 _14_ RTR  --- 32 message 32 [0 ffffffff 20 800] ------- [32:255 -1:255 32 0] 
s 1.240586482 _6_ RTR  --- 33 message 32 [0 0 0 0] ------- [6:255 -1:255 32 0] 
r 1.243036509 _32_ RTR  --- 33 message 32 [0 ffffffff 6 800] ------- [6:255 -1:255 32 0] 
r 1.243036774 _26_ RTR  --- 33 message 32 [0 ffffffff 6 800] ------- [6:255 -1:255 32 0] 
r 1.243036947 _23_ RTR  --- 33 message 32 [0 ffffffff 6 800] ------- [6:255 -1:255 32 0] 
r 1.243037141 _14_ RTR  --- 33 message 32 [0 ffffffff 6 800] ------- [6:255 -1:255 32 0] 
s 1.254386373 _24_ RTR  --- 34 message 32 [0 0 0 0] ------- [24:255 -1:255 32 0] 
r 1.259076500 _15_ RTR  --- 34 message 32 [0 ffffffff 18 800] ------- [24:255 -1:255 32 0] 
r 1.259076625 _18_ RTR  --- 34 message 32 [0 ffffffff 18 800] ------- [24:255 -1:255 32 0] 
r 1.259076673 _4_ RTR  --- 34 message 32 [0 ffffffff 18 800] ------- [24:255 -1:255 32 0] 
r 1.259076993 _28_ RTR  --- 34 message 32 [0 ffffffff 18 800] ------- [24:255 -1:255 32 0] 
r 1.259077049 _20_ RTR  --- 34 message 32 [0 ffffffff 18 800] ------- [24:255 -1:255 32 0] 
r 1.259077081 _27_ RTR  --- 34 message 32 [0 ffffffff 18 800] ------- [24:255 -1:255 32 0] 
r 1.259077118 _25_ RTR  --- 34 message 32 [0 ffffffff 18 800] ------- [24:255 -1:255 32 0] 
s 1.277448899 _39_ RTR  --- 35 message 32 [0 0 0 0] ------- [39:255 -1:255 32 0] 
r 1.280859137 _38_ RTR  --- 35 message 32 [0 ffffffff 27 800] ------- [39:255 -1:255 32 0] 
r 1.280859225 _1_ RTR  --- 35 message 32 [0 ffffffff 27 800] ------- [39:255 -1:255 32 0] 
r 1.280859257 _33_ RTR  --- 35 message 32 [0 ffffffff 27 800] ------- [39:255 -1:255 32 0] 
r 1.280859370 _16_ RTR  --- 35 message 32 [0 ffffffff 27 800] ------- [39:255 -1:255 32 0] 
r 1.280859403 _34_ RTR  --- 35 message 32 [0 ffffffff 27 800] ------- [39:255 -1:255 32 0] 
r 1.280859537 _9_ RTR  --- 35 message 32 [0 ffffffff 27 800] ------- [39:255 -1:255 32 0] 
r 1.280859644 _13_ RTR  --- 35 message 32 [0 ffffffff 27 800] ------- [39:255 -1:255 32 0] 
r 1.280859647 _7_ RTR  --- 35 message 32 [0 ffffffff 27 800] ------- [39:255 -1:255 32 0] 
s 1.371198109 _7_ AGT  --- 36 tcp 40 [0 0 0 0] ------- [7:0 9:0 32 0] [0 0] 0 0
r 1.371198109 _7_ RTR  --- 36 tcp 40 [0 0 0 0] ------- [7:0 9:0 32 0] [0 0] 0 0
s 1.371198109 _7_ RTR  --- 36 tcp 60 [0 0 0 0] ------- [7:0 9:0 32 9] [0 0] 0 0
r 1.383687162 _9_ AGT  --- 36 tcp 60 [0 9 7 800] ------- [7:0 9:0 32 9] [0 0] 1 0
s 1.383687162 _9_ AGT  --- 37 ack 40 [0 0 0 0] ------- [9:0 7:0 32 0] [0 0] 0 0
r 1.383687162 _9_ RTR  --- 37 ack 40 [0 0 0 0] ------- [9:0 7:0 32 0] [0 0] 0 0
s 1.415823466 _33_ RTR  --- 38 message 32 [0 0 0 0] ------- [33:255 -1:255 32 0] 
r 1.418913662 _16_ RTR  --- 38 message 32 [0 ffffffff 21 800] ------- [33:255 -1:255 32 0] 
r 1.418913824 _39_ RTR  --- 38 message 32 [0 ffffffff 21 800] ------- [33:255 -1:255 32 0] 
r 1.418913876 _38_ RTR  --- 38 message 32 [0 ffffffff 21 800] ------- [33:255 -1:255 32 0] 
r 1.418913996 _34_ RTR  --- 38 message 32 [0 ffffffff 21 800] ------- [33:255 -1:255 32 0] 
r 1.418914139 _1_ RTR  --- 38 message 32 [0 ffffffff 21 800] ------- [33:255 -1:255 32 0] 
r 1.418914215 _9_ RTR  --- 38 message 32 [0 ffffffff 21 800] ------- [33:255 -1:255 32 0] 
s 1.434610508 _8_ AGT  --- 39 tcp 40 [0 0 0 0] ------- [8:1 9:16 32 0] [0 0] 0 0
r 1.434610508 _8_ RTR  --- 39 tcp 40 [0 0 0 0] ------- [8:1 9:16 32 0] [0 0] 0 0
s 1.434610508 _8_ RTR  --- 39 tcp 60 [0 0 0 0] ------- [8:1 9:16 32 9] [0 0] 0 0
s 1.442372910 _38_ AGT  --- 40 tcp 40 [0 0 0 0] ------- [38:0 9:10 32 0] [0 0] 0 0
r 1.442372910 _38_ RTR  --- 40 tcp 40 [0 0 0 0] ------- [38:0 9:10 32 0] [0 0] 0 0
s 1.442372910 _38_ RTR  --- 40 tcp 60 [0 0 0 0] ------- [38:0 9:10 32 9] [0 0] 0 0
r 1.454862123 _9_ AGT  --- 40 tcp 60 [0 9 26 800] ------- [38:0 9:10 32 9] [0 0] 1 0
s 1.454862123 _9_ AGT  --- 41 ack 40 [0 0 0 0] ------- [9:10 38:0 32 0] [0 0] 0 0
r 1.454862123 _9_ RTR  --- 41 ack 40 [0 0 0 0] ------- [9:10 38:0 32 0] [0 0] 0 0
s 1.459442693 _7_ AGT  --- 42 tcp 40 [0 0 0 0] ------- [7:1 9:19 32 0] [0 0] 0 0
r 1.459442693 _7_ RTR  --- 42 tcp 40 [0 0 0 0] ------- [7:1 9:19 32 0] [0 0] 0 0
s 1.459442693 _7_ RTR  --- 42 tcp 60 [0 0 0 0] ------- [7:1 9:19 32 9] [0 0] 0 0
s 1.462313712 _34_ AGT  --- 43 tcp 1040 [0 0 0 0] ------- [34:0 9:3 32 0] [2 0] 0 0
r 1.462313712 _34_ RTR  --- 43 tcp 1040 [0 0 0 0] ------- [34:0 9:3 32 0] [2 0] 0 0
s 1.462313712 _34_ RTR  --- 43 tcp 1060 [0 0 0 0] ------- [34:0 9:3 32 9] [2 0] 0 0
r 1.463653044 _9_ AGT  --- 42 tcp 60 [0 9 7 800] ------- [7:1 9:19 32 9] [0 0] 1 0
s 1.463653044 _9_ AGT  --- 44 ack 40 [0 0 0 0] ------- [9:19 7:1 32 0] [0 0] 0 0
r 1.463653044 _9_ RTR  --- 44 ack 40 [0 0 0 0] ------- [9:19 7:1 32 0] [0 0] 0 0
r 1.467644867 _9_ AGT  --- 39 tcp 60 [0 9 8 800] ------- [8:1 9:16 32 9] [0 0] 1 0
s 1.467644867 _9_ AGT  --- 45 ack 40 [0 0 0 0] ------- [9:16 8:1 32 0] [0 0] 0 0
r 1.467644867 _9_ RTR  --- 45 ack 40 [0 0 0 0] ------- [9:16 8:1 32 0] [0 0] 0 0
s 1.467644867 _9_ RTR  --- 45 ack 60 [0 0 0 0] ------- [9:16 8:1 32 8] [0 0] 0 0
r 1.476955946 _9_ AGT  --- 43 tcp 36 [0 9 22 800] ------- [34:0 9:3 32 9] [2 0] 1 0
s 1.476955946 _9_ AGT  --- 47 ack 40 [0 0 0 0] ------- [9:3 34:0 32 0] [2 0] 0 0
r 1.476955946 _9_ RTR  --- 47 ack 40 [0 0 0 0] ------- [9:3 34:0 32 0] [2 0] 0 0
s 1.476955946 _9_ RTR  --- 47 ack 60 [0 0 0 0] ------- [9:3 34:0 32 34] [2 0] 0 0
s 1.477116514 _21_ RTR  --- 46 message 32 [0 0 0 0] ------- [21:255 -1:255 32 0] 
r 1.480526762 _20_ RTR  --- 46 message 32 [0 ffffffff 15 800] ------- [21:255 -1:255 32 0] 
r 1.480527255 _27_ RTR  --- 46 message 32 [0 ffffffff 15 800] ------- [21:255 -1:255 32 0] 
r 1.481116733 _8_ AGT  --- 45 ack 60 [0 8 9 800] ------- [9:16 8:1 32 8] [0 0] 1 0
s 1.481116733 _8_ AGT  --- 48 tcp 1040 [0 0 0 0] ------- [8:1 9:16 32 0] [1 0] 0 0
r 1.481116733 _8_ RTR  --- 48 tcp 1040 [0 0 0 0] ------- [8:1 9:16 32 0] [1 0] 0 0
s 1.481116733 _8_ RTR  --- 48 tcp 1060 [0 0 0 0] ------- [8:1 9:16 32 9] [1 0] 0 0
r 1.484957753 _34_ AGT  --- 47 ack 60 [0 22 9 800] ------- [9:3 34:0 32 34] [2 0] 1 0
r 1.496655519 _9_ AGT  --- 48 tcp 36 [0 9 8 800] ------- [8:1 9:16 32 9] [1 0] 1 0
s 1.496655519 _9_ AGT  --- 49 ack 40 [0 0 0 0] ------- [9:16 8:1 32 0] [1 0] 0 0
r 1.496655519 _9_ RTR  --- 49 ack 40 [0 0 0 0] ------- [9:16 8:1 32 0] [1 0] 0 0
s 1.496655519 _9_ RTR  --- 49 ack 60 [0 0 0 0] ------- [9:16 8:1 32 8] [1 0] 0 0
r 1.502786305 _8_ AGT  --- 49 ack 60 [0 8 9 800] ------- [9:16 8:1 32 8] [1 0] 1 0
s 1.516224036 _5_ RTR  --- 50 message 32 [0 0 0 0] ------- [5:255 -1:255 32 0] 
r 1.518674264 _37_ RTR  --- 50 message 32 [0 ffffffff 5 800] ------- [5:255 -1:255 32 0] 
r 1.518674601 _2_ RTR  --- 50 message 32 [0 ffffffff 5 800] ------- [5:255 -1:255 32 0] 
r 1.518674856 _19_ RTR  --- 50 message 32 [0 ffffffff 5 800] ------- [5:255 -1:255 32 0] 
s 1.582293144 _7_ RTR  --- 51 message 32 [0 0 0 0] ------- [7:255 -1:255 32 0] 
r 1.586343478 _29_ RTR  --- 51 message 32 [0 ffffffff 7 800] ------- [7:255 -1:255 32 0] 
r 1.586343496 _9_ RTR  --- 51 message 32 [0 ffffffff 7 800] ------- [7:255 -1:255 32 0] 
s 1.586343496 _9_ RTR  --- 37 ack 80 [0 0 0 0] ------- [9:0 7:0 32 7] [0 0] 0 0
s 1.586343496 _9_ RTR  --- 44 ack 80 [0 0 0 0] ------- [9:19 7:1 32 7] [0 0] 0 0
r 1.586343508 _13_ RTR  --- 51 message 32 [0 ffffffff 7 800] ------- [7:255 -1:255 32 0] 
r 1.586343588 _8_ RTR  --- 51 message 32 [0 ffffffff 7 800] ------- [7:255 -1:255 32 0] 
r 1.586343626 _12_ RTR  --- 51 message 32 [0 ffffffff 7 800] ------- [7:255 -1:255 32 0] 
r 1.586343673 _1_ RTR  --- 51 message 32 [0 ffffffff 7 800] ------- [7:255 -1:255 32 0] 
r 1.586343693 _35_ RTR  --- 51 message 32 [0 ffffffff 7 800] ------- [7:255 -1:255 32 0] 
r 1.586343696 _34_ RTR  --- 51 message 32 [0 ffffffff 7 800] ------- [7:255 -1:255 32 0] 
r 1.586343721 _38_ RTR  --- 51 message 32 [0 ffffffff 7 800] ------- [7:255 -1:255 32 0] 
r 1.586343895 _39_ RTR  --- 51 message 32 [0 ffffffff 7 800] ------- [7:255 -1:255 32 0] 
r 1.586343908 _11_ RTR  --- 51 message 32 [0 ffffffff 7 800] ------- [7:255 -1:255 32 0] 
s 1.590111972 _38_ RTR  --- 52 message 32 [0 0 0 0] ------- [38:255 -1:255 32 0] 
r 1.590873848 _7_ AGT  --- 37 ack 80 [0 7 9 800] ------- [9:0 7:0 32 7] [0 0] 1 0
s 1.590873848 _7_ AGT  --- 53 tcp 1040 [0 0 0 0] ------- [7:0 9:0 32 0] [1 0] 0 0
r 1.590873848 _7_ RTR  --- 53 tcp 1040 [0 0 0 0] ------- [7:0 9:0 32 0] [1 0] 0 0
s 1.590873848 _7_ RTR  --- 53 tcp 1060 [0 0 0 0] ------- [7:0 9:0 32 9] [1 0] 0 0
r 1.592882210 _39_ RTR  --- 52 message 32 [0 ffffffff 26 800] ------- [38:255 -1:255 32 0] 
r 1.592882245 _34_ RTR  --- 52 message 32 [0 ffffffff 26 800] ------- [38:255 -1:255 32 0] 
r 1.592882318 _1_ RTR  --- 52 message 32 [0 ffffffff 26 800] ------- [38:255 -1:255 32 0] 
r 1.592882377 _9_ RTR  --- 52 message 32 [0 ffffffff 26 800] ------- [38:255 -1:255 32 0] 
s 1.592882377 _9_ RTR  --- 41 ack 80 [0 0 0 0] ------- [9:10 38:0 32 38] [0 0] 0 0
r 1.592882381 _33_ RTR  --- 52 message 32 [0 ffffffff 26 800] ------- [38:255 -1:255 32 0] 
r 1.592882485 _13_ RTR  --- 52 message 32 [0 ffffffff 26 800] ------- [38:255 -1:255 32 0] 
r 1.592882549 _7_ RTR  --- 52 message 32 [0 ffffffff 26 800] ------- [38:255 -1:255 32 0] 
r 1.592882557 _16_ RTR  --- 52 message 32 [0 ffffffff 26 800] ------- [38:255 -1:255 32 0] 
r 1.592882778 _29_ RTR  --- 52 message 32 [0 ffffffff 26 800] ------- [38:255 -1:255 32 0] 
r 1.595596201 _9_ AGT  --- 53 tcp 36 [0 9 7 800] ------- [7:0 9:0 32 9] [1 0] 1 0
s 1.595596201 _9_ AGT  --- 54 ack 40 [0 0 0 0] ------- [9:0 7:0 32 0] [1 0] 0 0
r 1.595596201 _9_ RTR  --- 54 ack 40 [0 0 0 0] ------- [9:0 7:0 32 0] [1 0] 0 0
s 1.595596201 _9_ RTR  --- 54 ack 60 [0 0 0 0] ------- [9:0 7:0 32 7] [1 0] 0 0
r 1.600716553 _7_ AGT  --- 44 ack 80 [0 7 9 800] ------- [9:19 7:1 32 7] [0 0] 1 0
s 1.600716553 _7_ AGT  --- 55 tcp 1040 [0 0 0 0] ------- [7:1 9:19 32 0] [1 0] 0 0
r 1.600716553 _7_ RTR  --- 55 tcp 1040 [0 0 0 0] ------- [7:1 9:19 32 0] [1 0] 0 0
s 1.600716553 _7_ RTR  --- 55 tcp 1060 [0 0 0 0] ------- [7:1 9:19 32 9] [1 0] 0 0
r 1.603838906 _9_ AGT  --- 55 tcp 36 [0 9 7 800] ------- [7:1 9:19 32 9] [1 0] 1 0
s 1.603838906 _9_ AGT  --- 56 ack 40 [0 0 0 0] ------- [9:19 7:1 32 0] [1 0] 0 0
r 1.603838906 _9_ RTR  --- 56 ack 40 [0 0 0 0] ------- [9:19 7:1 32 0] [1 0] 0 0
s 1.603838906 _9_ RTR  --- 56 ack 60 [0 0 0 0] ------- [9:19 7:1 32 7] [1 0] 0 0
r 1.608319311 _38_ AGT  --- 41 ack 80 [0 26 9 800] ------- [9:10 38:0 32 38] [0 0] 1 0
s 1.608319311 _38_ AGT  --- 57 tcp 1040 [0 0 0 0] ------- [38:0 9:10 32 0] [1 0] 0 0
r 1.608319311 _38_ RTR  --- 57 tcp 1040 [0 0 0 0] ------- [38:0 9:10 32 0] [1 0] 0 0
s 1.608319311 _38_ RTR  --- 57 tcp 1060 [0 0 0 0] ------- [38:0 9:10 32 9] [1 0] 0 0
r 1.612081715 _9_ AGT  --- 57 tcp 36 [0 9 26 800] ------- [38:0 9:10 32 9] [1 0] 1 0
s 1.612081715 _9_ AGT  --- 59 ack 40 [0 0 0 0] ------- [9:10 38:0 32 0] [1 0] 0 0
r 1.612081715 _9_ RTR  --- 59 ack 40 [0 0 0 0] ------- [9:10 38:0 32 0] [1 0] 0 0
s 1.612081715 _9_ RTR  --- 59 ack 60 [0 0 0 0] ------- [9:10 38:0 32 38] [1 0] 0 0
s 1.614474343 _2_ RTR  --- 58 message 32 [0 0 0 0] ------- [2:255 -1:255 32 0] 
r 1.617522068 _7_ AGT  --- 54 ack 60 [0 7 9 800] ------- [9:0 7:0 32 7] [1 0] 1 0
r 1.618844766 _37_ RTR  --- 58 message 32 [0 ffffffff 2 800] ------- [2:255 -1:255 32 0] 
r 1.618844908 _5_ RTR  --- 58 message 32 [0 ffffffff 2 800] ------- [2:255 -1:255 32 0] 
r 1.618845159 _27_ RTR  --- 58 message 32 [0 ffffffff 2 800] ------- [2:255 -1:255 32 0] 
s 1.622664629 _34_ AGT  --- 60 tcp 1040 [0 0 0 0] ------- [34:0 9:3 32 0] [3 0] 0 0
r 1.622664629 _34_ RTR  --- 60 tcp 1040 [0 0 0 0] ------- [34:0 9:3 32 0] [3 0] 0 0
s 1.622664629 _34_ RTR  --- 60 tcp 1060 [0 0 0 0] ------- [34:0 9:3 32 9] [3 0] 0 0
r 1.625010773 _7_ AGT  --- 56 ack 60 [0 7 9 800] ------- [9:19 7:1 32 7] [1 0] 1 0
r 1.629491531 _38_ AGT  --- 59 ack 60 [0 26 9 800] ------- [9:10 38:0 32 38] [1 0] 1 0