s 0.081065904 _11_ RTR  --- 0 message 32 [0 0 0 0] ------- [11:255 -1:255 32 0] 
r 0.085436132 _12_ RTR  --- 0 message 32 [0 ffffffff b 800] ------- [11:255 -1:255 32 0] 
r 0.085436239 _13_ RTR  --- 0 message 32 [0 ffffffff b 800] ------- [11:255 -1:255 32 0] 
r 0.085436262 _2_ RTR  --- 0 message 32 [0 ffffffff b 800] ------- [11:255 -1:255 32 0] 
r 0.085436286 _7_ RTR  --- 0 message 32 [0 ffffffff b 800] ------- [11:255 -1:255 32 0] 
r 0.085436292 _9_ RTR  --- 0 message 32 [0 ffffffff b 800] ------- [11:255 -1:255 32 0] 
r 0.085436323 _8_ RTR  --- 0 message 32 [0 ffffffff b 800] ------- [11:255 -1:255 32 0] 
r 0.085436381 _29_ RTR  --- 0 message 32 [0 ffffffff b 800] ------- [11:255 -1:255 32 0] 
r 0.085436391 _34_ RTR  --- 0 message 32 [0 ffffffff b 800] ------- [11:255 -1:255 32 0] 
r 0.085436396 _35_ RTR  --- 0 message 32 [0 ffffffff b 800] ------- [11:255 -1:255 32 0] 
r 0.085436415 _17_ RTR  --- 0 message 32 [0 ffffffff b 800] ------- [11:255 -1:255 32 0] 
r 0.085436417 _27_ RTR  --- 0 message 32 [0 ffffffff b 800] ------- [11:255 -1:255 32 0] 
r 0.085436460 _37_ RTR  --- 0 message 32 [0 ffffffff b 800] ------- [11:255 -1:255 32 0] 
r 0.085436492 _38_ RTR  --- 0 message 32 [0 ffffffff b 800] ------- [11:255 -1:255 32 0] 
r 0.085436517 _0_ RTR  --- 0 message 32 [0 ffffffff b 800] ------- [11:255 -1:255 32 0] 
r 0.085436528 _3_ RTR  --- 0 message 32 [0 ffffffff b 800] ------- [11:255 -1:255 32 0] 
r 0.085436537 _1_ RTR  --- 0 message 32 [0 ffffffff b 800] ------- [11:255 -1:255 32 0] 
r 0.085436543 _5_ RTR  --- 0 message 32 [0 ffffffff b 800] ------- [11:255 -1:255 32 0] 
r 0.085436570 _30_ RTR  --- 0 message 32 [0 ffffffff b 800] ------- [11:255 -1:255 32 0] 
r 0.085436607 _39_ RTR  --- 0 message 32 [0 ffffffff b 800] ------- [11:255 -1:255 32 0] 
r 0.085436635 _36_ RTR  --- 0 message 32 [0 ffffffff b 800] ------- [11:255 -1:255 32 0] 
r 0.085436655 _33_ RTR  --- 0 message 32 [0 ffffffff b 800] ------- [11:255 -1:255 32 0] 
r 0.085436671 _14_ RTR  --- 0 message 32 [0 ffffffff b 800] ------- [11:255 -1:255 32 0] 
r 0.085436705 _21_ RTR  --- 0 message 32 [0 ffffffff b 800] ------- [11:255 -1:255 32 0] 
r 0.085436720 _20_ RTR  --- 0 message 32 [0 ffffffff b 800] ------- [11:255 -1:255 32 0] 
s 0.119014394 _16_ RTR  --- 1 message 32 [0 0 0 0] ------- [16:255 -1:255 32 0] 
r 0.123704494 _33_ RTR  --- 1 message 32 [0 ffffffff 10 800] ------- [16:255 -1:255 32 0] 
r 0.123704630 _39_ RTR  --- 1 message 32 [0 ffffffff 10 800] ------- [16:255 -1:255 32 0] 
r 0.123704687 _38_ RTR  --- 1 message 32 [0 ffffffff 10 800] ------- [16:255 -1:255 32 0] 
r 0.123704758 _34_ RTR  --- 1 message 32 [0 ffffffff 10 800] ------- [16:255 -1:255 32 0] 
r 0.123704792 _1_ RTR  --- 1 message 32 [0 ffffffff 10 800] ------- [16:255 -1:255 32 0] 
r 0.123704865 _9_ RTR  --- 1 message 32 [0 ffffffff 10 800] ------- [16:255 -1:255 32 0] 
r 0.123704913 _13_ RTR  --- 1 message 32 [0 ffffffff 10 800] ------- [16:255 -1:255 32 0] 
r 0.123704975 _7_ RTR  --- 1 message 32 [0 ffffffff 10 800] ------- [16:255 -1:255 32 0] 
r 0.123704986 _30_ RTR  --- 1 message 32 [0 ffffffff 10 800] ------- [16:255 -1:255 32 0] 
r 0.123705070 _36_ RTR  --- 1 message 32 [0 ffffffff 10 800] ------- [16:255 -1:255 32 0] 
r 0.123705080 _29_ RTR  --- 1 message 32 [0 ffffffff 10 800] ------- [16:255 -1:255 32 0] 
r 0.123705181 _8_ RTR  --- 1 message 32 [0 ffffffff 10 800] ------- [16:255 -1:255 32 0] 
r 0.123705204 _12_ RTR  --- 1 message 32 [0 ffffffff 10 800] ------- [16:255 -1:255 32 0] 
r 0.123705211 _35_ RTR  --- 1 message 32 [0 ffffffff 10 800] ------- [16:255 -1:255 32 0] 
s 0.135095336 _8_ RTR  --- 2 message 32 [0 0 0 0] ------- [8:255 -1:255 32 0] 
r 0.138825410 _35_ RTR  --- 2 message 32 [0 ffffffff 8 800] ------- [8:255 -1:255 32 0] 
r 0.138825453 _29_ RTR  --- 2 message 32 [0 ffffffff 8 800] ------- [8:255 -1:255 32 0] 
r 0.138825529 _12_ RTR  --- 2 message 32 [0 ffffffff 8 800] ------- [8:255 -1:255 32 0] 
r 0.138825558 _7_ RTR  --- 2 message 32 [0 ffffffff 8 800] ------- [8:255 -1:255 32 0] 
r 0.138825723 _13_ RTR  --- 2 message 32 [0 ffffffff 8 800] ------- [8:255 -1:255 32 0] 
r 0.138825729 _9_ RTR  --- 2 message 32 [0 ffffffff 8 800] ------- [8:255 -1:255 32 0] 
r 0.138825752 _1_ RTR  --- 2 message 32 [0 ffffffff 8 800] ------- [8:255 -1:255 32 0] 
r 0.138825753 _2_ RTR  --- 2 message 32 [0 ffffffff 8 800] ------- [8:255 -1:255 32 0] 
r 0.138825754 _11_ RTR  --- 2 message 32 [0 ffffffff 8 800] ------- [8:255 -1:255 32 0] 
r 0.138825798 _37_ RTR  --- 2 message 32 [0 ffffffff 8 800] ------- [8:255 -1:255 32 0] 
r 0.138825834 _38_ RTR  --- 2 message 32 [0 ffffffff 8 800] ------- [8:255 -1:255 32 0] 
r 0.138825835 _34_ RTR  --- 2 message 32 [0 ffffffff 8 800] ------- [8:255 -1:255 32 0] 
r 0.138825899 _39_ RTR  --- 2 message 32 [0 ffffffff 8 800] ------- [8:255 -1:255 32 0] 
r 0.138825914 _5_ RTR  --- 2 message 32 [0 ffffffff 8 800] ------- [8:255 -1:255 32 0] 
r 0.138826038 _33_ RTR  --- 2 message 32 [0 ffffffff 8 800] ------- [8:255 -1:255 32 0] 
r 0.138826122 _16_ RTR  --- 2 message 32 [0 ffffffff 8 800] ------- [8:255 -1:255 32 0] 
r 0.138826132 _27_ RTR  --- 2 message 32 [0 ffffffff 8 800] ------- [8:255 -1:255 32 0] 
s 0.141515659 _32_ RTR  --- 3 message 32 [0 0 0 0] ------- [32:255 -1:255 32 0] 
r 0.145565674 _6_ RTR  --- 3 message 32 [0 ffffffff 20 800] ------- [32:255 -1:255 32 0] 
r 0.145565800 _26_ RTR  --- 3 message 32 [0 ffffffff 20 800] ------- [32:255 -1:255 32 0] 
r 0.145565882 _23_ RTR  --- 3 message 32 [0 ffffffff 20 800] ------- [32:255 -1:255 32 0] 
r 0.145565990 _14_ RTR  --- 3 message 32 [0 ffffffff 20 800] ------- [32:255 -1:255 32 0] 
r 0.145566111 _3_ RTR  --- 3 message 32 [0 ffffffff 20 800] ------- [32:255 -1:255 32 0] 
r 0.145566129 _0_ RTR  --- 3 message 32 [0 ffffffff 20 800] ------- [32:255 -1:255 32 0] 
r 0.145566337 _17_ RTR  --- 3 message 32 [0 ffffffff 20 800] ------- [32:255 -1:255 32 0] 
r 0.145566356 _25_ RTR  --- 3 message 32 [0 ffffffff 20 800] ------- [32:255 -1:255 32 0] 
r 0.145566378 _22_ RTR  --- 3 message 32 [0 ffffffff 20 800] ------- [32:255 -1:255 32 0] 
r 0.145566395 _24_ RTR  --- 3 message 32 [0 ffffffff 20 800] ------- [32:255 -1:255 32 0] 
r 0.145566421 _15_ RTR  --- 3 message 32 [0 ffffffff 20 800] ------- [32:255 -1:255 32 0] 
r 0.145566424 _10_ RTR  --- 3 message 32 [0 ffffffff 20 800] ------- [32:255 -1:255 32 0] 
r 0.145566478 _4_ RTR  --- 3 message 32 [0 ffffffff 20 800] ------- [32:255 -1:255 32 0] 
s 0.304003514 _28_ RTR  --- 4 message 32 [0 0 0 0] ------- [28:255 -1:255 32 0] 
r 0.307093684 _4_ RTR  --- 4 message 32 [0 ffffffff 1c 800] ------- [28:255 -1:255 32 0] 
r 0.307093731 _25_ RTR  --- 4 message 32 [0 ffffffff 1c 800] ------- [28:255 -1:255 32 0] 
r 0.307093734 _18_ RTR  --- 4 message 32 [0 ffffffff 1c 800] ------- [28:255 -1:255 32 0] 
r 0.307093762 _15_ RTR  --- 4 message 32 [0 ffffffff 1c 800] ------- [28:255 -1:255 32 0] 
r 0.307093825 _24_ RTR  --- 4 message 32 [0 ffffffff 1c 800] ------- [28:255 -1:255 32 0] 
r 0.307094004 _20_ RTR  --- 4 message 32 [0 ffffffff 1c 800] ------- [28:255 -1:255 32 0] 
r 0.307094119 _21_ RTR  --- 4 message 32 [0 ffffffff 1c 800] ------- [28:255 -1:255 32 0] 
r 0.307094159 _23_ RTR  --- 4 message 32 [0 ffffffff 1c 800] ------- [28:255 -1:255 32 0] 
r 0.307094164 _27_ RTR  --- 4 message 32 [0 ffffffff 1c 800] ------- [28:255 -1:255 32 0] 
r 0.307094215 _14_ RTR  --- 4 message 32 [0 ffffffff 1c 800] ------- [28:255 -1:255 32 0] 
r 0.307094261 _26_ RTR  --- 4 message 32 [0 ffffffff 1c 800] ------- [28:255 -1:255 32 0] 
r 0.307094277 _3_ RTR  --- 4 message 32 [0 ffffffff 1c 800] ------- [28:255 -1:255 32 0] 
s 0.317566595 _6_ RTR  --- 5 message 32 [0 0 0 0] ------- [6:255 -1:255 32 0] 
r 0.320976610 _32_ RTR  --- 5 message 32 [0 ffffffff 6 800] ------- [6:255 -1:255 32 0] 
r 0.320976742 _26_ RTR  --- 5 message 32 [0 ffffffff 6 800] ------- [6:255 -1:255 32 0] 
r 0.320976828 _23_ RTR  --- 5 message 32 [0 ffffffff 6 800] ------- [6:255 -1:255 32 0] 
r 0.320976926 _14_ RTR  --- 5 message 32 [0 ffffffff 6 800] ------- [6:255 -1:255 32 0] 
r 0.320977043 _3_ RTR  --- 5 message 32 [0 ffffffff 6 800] ------- [6:255 -1:255 32 0] 
r 0.320977056 _0_ RTR  --- 5 message 32 [0 ffffffff 6 800] ------- [6:255 -1:255 32 0] 
r 0.320977262 _17_ RTR  --- 5 message 32 [0 ffffffff 6 800] ------- [6:255 -1:255 32 0] 
r 0.320977300 _22_ RTR  --- 5 message 32 [0 ffffffff 6 800] ------- [6:255 -1:255 32 0] 
r 0.320977305 _25_ RTR  --- 5 message 32 [0 ffffffff 6 800] ------- [6:255 -1:255 32 0] 
r 0.320977337 _24_ RTR  --- 5 message 32 [0 ffffffff 6 800] ------- [6:255 -1:255 32 0] 
r 0.320977347 _10_ RTR  --- 5 message 32 [0 ffffffff 6 800] ------- [6:255 -1:255 32 0] 
r 0.320977365 _15_ RTR  --- 5 message 32 [0 ffffffff 6 800] ------- [6:255 -1:255 32 0] 
r 0.320977423 _4_ RTR  --- 5 message 32 [0 ffffffff 6 800] ------- [6:255 -1:255 32 0] 
s 0.353923107 _9_ RTR  --- 6 message 32 [0 0 0 0] ------- [9:255 -1:255 32 0] 
r 0.356693162 _13_ RTR  --- 6 message 32 [0 ffffffff 9 800] ------- [9:255 -1:255 32 0] 
r 0.356693224 _34_ RTR  --- 6 message 32 [0 ffffffff 9 800] ------- [9:255 -1:255 32 0] 
r 0.356693283 _7_ RTR  --- 6 message 32 [0 ffffffff 9 800] ------- [9:255 -1:255 32 0] 
r 0.356693308 _38_ RTR  --- 6 message 32 [0 ffffffff 9 800] ------- [9:255 -1:255 32 0] 
r 0.356693396 _1_ RTR  --- 6 message 32 [0 ffffffff 9 800] ------- [9:255 -1:255 32 0] 
r 0.356693426 _39_ RTR  --- 6 message 32 [0 ffffffff 9 800] ------- [9:255 -1:255 32 0] 
r 0.356693449 _29_ RTR  --- 6 message 32 [0 ffffffff 9 800] ------- [9:255 -1:255 32 0] 
r 0.356693457 _12_ RTR  --- 6 message 32 [0 ffffffff 9 800] ------- [9:255 -1:255 32 0] 
r 0.356693479 _33_ RTR  --- 6 message 32 [0 ffffffff 9 800] ------- [9:255 -1:255 32 0] 
r 0.356693495 _11_ RTR  --- 6 message 32 [0 ffffffff 9 800] ------- [9:255 -1:255 32 0] 
r 0.356693501 _8_ RTR  --- 6 message 32 [0 ffffffff 9 800] ------- [9:255 -1:255 32 0] 
r 0.356693559 _35_ RTR  --- 6 message 32 [0 ffffffff 9 800] ------- [9:255 -1:255 32 0] 
r 0.356693578 _16_ RTR  --- 6 message 32 [0 ffffffff 9 800] ------- [9:255 -1:255 32 0] 
r 0.356693635 _30_ RTR  --- 6 message 32 [0 ffffffff 9 800] ------- [9:255 -1:255 32 0] 
r 0.356693731 _36_ RTR  --- 6 message 32 [0 ffffffff 9 800] ------- [9:255 -1:255 32 0] 
r 0.356693761 _2_ RTR  --- 6 message 32 [0 ffffffff 9 800] ------- [9:255 -1:255 32 0] 
r 0.356693793 _17_ RTR  --- 6 message 32 [0 ffffffff 9 800] ------- [9:255 -1:255 32 0] 
r 0.356693898 _37_ RTR  --- 6 message 32 [0 ffffffff 9 800] ------- [9:255 -1:255 32 0] 
s 0.460744913 _14_ RTR  --- 7 message 32 [0 0 0 0] ------- [14:255 -1:255 32 0] 
r 0.464795057 _3_ RTR  --- 7 message 32 [0 ffffffff e 800] ------- [14:255 -1:255 32 0] 
r 0.464795117 _26_ RTR  --- 7 message 32 [0 ffffffff e 800] ------- [14:255 -1:255 32 0] 
r 0.464795157 _23_ RTR  --- 7 message 32 [0 ffffffff e 800] ------- [14:255 -1:255 32 0] 
r 0.464795195 _0_ RTR  --- 7 message 32 [0 ffffffff e 800] ------- [14:255 -1:255 32 0] 
r 0.464795243 _6_ RTR  --- 7 message 32 [0 ffffffff e 800] ------- [14:255 -1:255 32 0] 
r 0.464795244 _32_ RTR  --- 7 message 32 [0 ffffffff e 800] ------- [14:255 -1:255 32 0] 
r 0.464795388 _24_ RTR  --- 7 message 32 [0 ffffffff e 800] ------- [14:255 -1:255 32 0] 
r 0.464795420 _17_ RTR  --- 7 message 32 [0 ffffffff e 800] ------- [14:255 -1:255 32 0] 
r 0.464795433 _15_ RTR  --- 7 message 32 [0 ffffffff e 800] ------- [14:255 -1:255 32 0] 
r 0.464795455 _27_ RTR  --- 7 message 32 [0 ffffffff e 800] ------- [14:255 -1:255 32 0] 
r 0.464795509 _18_ RTR  --- 7 message 32 [0 ffffffff e 800] ------- [14:255 -1:255 32 0] 
r 0.464795510 _4_ RTR  --- 7 message 32 [0 ffffffff e 800] ------- [14:255 -1:255 32 0] 
r 0.464795514 _25_ RTR  --- 7 message 32 [0 ffffffff e 800] ------- [14:255 -1:255 32 0] 
r 0.464795613 _28_ RTR  --- 7 message 32 [0 ffffffff e 800] ------- [14:255 -1:255 32 0] 
r 0.464795673 _20_ RTR  --- 7 message 32 [0 ffffffff e 800] ------- [14:255 -1:255 32 0] 
r 0.464795680 _11_ RTR  --- 7 message 32 [0 ffffffff e 800] ------- [14:255 -1:255 32 0] 
r 0.464795722 _22_ RTR  --- 7 message 32 [0 ffffffff e 800] ------- [14:255 -1:255 32 0] 
s 0.466254199 _21_ RTR  --- 8 message 32 [0 0 0 0] ------- [21:255 -1:255 32 0] 
r 0.469024321 _20_ RTR  --- 8 message 32 [0 ffffffff 15 800] ------- [21:255 -1:255 32 0] 
r 0.469024570 _27_ RTR  --- 8 message 32 [0 ffffffff 15 800] ------- [21:255 -1:255 32 0] 
r 0.469024622 _18_ RTR  --- 8 message 32 [0 ffffffff 15 800] ------- [21:255 -1:255 32 0] 
r 0.469024645 _5_ RTR  --- 8 message 32 [0 ffffffff 15 800] ------- [21:255 -1:255 32 0] 
r 0.469024655 _24_ RTR  --- 8 message 32 [0 ffffffff 15 800] ------- [21:255 -1:255 32 0] 
r 0.469024665 _15_ RTR  --- 8 message 32 [0 ffffffff 15 800] ------- [21:255 -1:255 32 0] 
r 0.469024674 _4_ RTR  --- 8 message 32 [0 ffffffff 15 800] ------- [21:255 -1:255 32 0] 
r 0.469024730 _2_ RTR  --- 8 message 32 [0 ffffffff 15 800] ------- [21:255 -1:255 32 0] 
r 0.469024732 _37_ RTR  --- 8 message 32 [0 ffffffff 15 800] ------- [21:255 -1:255 32 0] 
r 0.469024804 _28_ RTR  --- 8 message 32 [0 ffffffff 15 800] ------- [21:255 -1:255 32 0] 
r 0.469024892 _19_ RTR  --- 8 message 32 [0 ffffffff 15 800] ------- [21:255 -1:255 32 0] 
r 0.469024925 _31_ RTR  --- 8 message 32 [0 ffffffff 15 800] ------- [21:255 -1:255 32 0] 
r 0.469024975 _25_ RTR  --- 8 message 32 [0 ffffffff 15 800] ------- [21:255 -1:255 32 0] 
r 0.469025000 _11_ RTR  --- 8 message 32 [0 ffffffff 15 800] ------- [21:255 -1:255 32 0] 
r 0.469025005 _3_ RTR  --- 8 message 32 [0 ffffffff 15 800] ------- [21:255 -1:255 32 0] 
s 0.476883667 _7_ RTR  --- 9 message 32 [0 0 0 0] ------- [7:255 -1:255 32 0] 
r 0.480933835 _29_ RTR  --- 9 message 32 [0 ffffffff 7 800] ------- [7:255 -1:255 32 0] 
r 0.480933843 _9_ RTR  --- 9 message 32 [0 ffffffff 7 800] ------- [7:255 -1:255 32 0] 
r 0.480933851 _13_ RTR  --- 9 message 32 [0 ffffffff 7 800] ------- [7:255 -1:255 32 0] 
r 0.480933890 _8_ RTR  --- 9 message 32 [0 ffffffff 7 800] ------- [7:255 -1:255 32 0] 
r 0.480933909 _12_ RTR  --- 9 message 32 [0 ffffffff 7 800] ------- [7:255 -1:255 32 0] 
r 0.480933929 _1_ RTR  --- 9 message 32 [0 ffffffff 7 800] ------- [7:255 -1:255 32 0] 
r 0.480933944 _34_ RTR  --- 9 message 32 [0 ffffffff 7 800] ------- [7:255 -1:255 32 0] 
r 0.480933944 _35_ RTR  --- 9 message 32 [0 ffffffff 7 800] ------- [7:255 -1:255 32 0] 
r 0.480933955 _38_ RTR  --- 9 message 32 [0 ffffffff 7 800] ------- [7:255 -1:255 32 0] 
r 0.480934042 _39_ RTR  --- 9 message 32 [0 ffffffff 7 800] ------- [7:255 -1:255 32 0] 
r 0.480934049 _11_ RTR  --- 9 message 32 [0 ffffffff 7 800] ------- [7:255 -1:255 32 0] 
r 0.480934158 _33_ RTR  --- 9 message 32 [0 ffffffff 7 800] ------- [7:255 -1:255 32 0] 
r 0.480934218 _2_ RTR  --- 9 message 32 [0 ffffffff 7 800] ------- [7:255 -1:255 32 0] 
r 0.480934248 _16_ RTR  --- 9 message 32 [0 ffffffff 7 800] ------- [7:255 -1:255 32 0] 
r 0.480934321 _37_ RTR  --- 9 message 32 [0 ffffffff 7 800] ------- [7:255 -1:255 32 0] 
r 0.480934368 _30_ RTR  --- 9 message 32 [0 ffffffff 7 800] ------- [7:255 -1:255 32 0] 
r 0.480934435 _5_ RTR  --- 9 message 32 [0 ffffffff 7 800] ------- [7:255 -1:255 32 0] 
r 0.480934461 _17_ RTR  --- 9 message 32 [0 ffffffff 7 800] ------- [7:255 -1:255 32 0] 
r 0.480934461 _36_ RTR  --- 9 message 32 [0 ffffffff 7 800] ------- [7:255 -1:255 32 0] 
s 0.533780695 _37_ RTR  --- 10 message 32 [0 0 0 0] ------- [37:255 -1:255 32 0] 
r 0.536550810 _5_ RTR  --- 10 message 32 [0 ffffffff 25 800] ------- [37:255 -1:255 32 0] 
r 0.536550907 _2_ RTR  --- 10 message 32 [0 ffffffff 25 800] ------- [37:255 -1:255 32 0] 
r 0.536551137 _12_ RTR  --- 10 message 32 [0 ffffffff 25 800] ------- [37:255 -1:255 32 0] 
r 0.536551157 _8_ RTR  --- 10 message 32 [0 ffffffff 25 800] ------- [37:255 -1:255 32 0] 
r 0.536551160 _35_ RTR  --- 10 message 32 [0 ffffffff 25 800] ------- [37:255 -1:255 32 0] 
r 0.536551174 _19_ RTR  --- 10 message 32 [0 ffffffff 25 800] ------- [37:255 -1:255 32 0] 
r 0.536551175 _31_ RTR  --- 10 message 32 [0 ffffffff 25 800] ------- [37:255 -1:255 32 0] 
r 0.536551227 _21_ RTR  --- 10 message 32 [0 ffffffff 25 800] ------- [37:255 -1:255 32 0] 
r 0.536551250 _11_ RTR  --- 10 message 32 [0 ffffffff 25 800] ------- [37:255 -1:255 32 0] 
r 0.536551250 _27_ RTR  --- 10 message 32 [0 ffffffff 25 800] ------- [37:255 -1:255 32 0] 
r 0.536551274 _29_ RTR  --- 10 message 32 [0 ffffffff 25 800] ------- [37:255 -1:255 32 0] 
r 0.536551321 _20_ RTR  --- 10 message 32 [0 ffffffff 25 800] ------- [37:255 -1:255 32 0] 
r 0.536551348 _7_ RTR  --- 10 message 32 [0 ffffffff 25 800] ------- [37:255 -1:255 32 0] 
r 0.536551455 _13_ RTR  --- 10 message 32 [0 ffffffff 25 800] ------- [37:255 -1:255 32 0] 
r 0.536551485 _9_ RTR  --- 10 message 32 [0 ffffffff 25 800] ------- [37:255 -1:255 32 0] 
s 0.687859004 _17_ RTR  --- 11 message 32 [0 0 0 0] ------- [17:255 -1:255 32 0] 
r 0.692229232 _0_ RTR  --- 11 message 32 [0 ffffffff 11 800] ------- [17:255 -1:255 32 0] 
r 0.692229400 _3_ RTR  --- 11 message 32 [0 ffffffff 11 800] ------- [17:255 -1:255 32 0] 
r 0.692229479 _36_ RTR  --- 11 message 32 [0 ffffffff 11 800] ------- [17:255 -1:255 32 0] 
r 0.692229487 _30_ RTR  --- 11 message 32 [0 ffffffff 11 800] ------- [17:255 -1:255 32 0] 
r 0.692229511 _14_ RTR  --- 11 message 32 [0 ffffffff 11 800] ------- [17:255 -1:255 32 0] 
r 0.692229514 _11_ RTR  --- 11 message 32 [0 ffffffff 11 800] ------- [17:255 -1:255 32 0] 
r 0.692229567 _22_ RTR  --- 11 message 32 [0 ffffffff 11 800] ------- [17:255 -1:255 32 0] 
r 0.692229639 _26_ RTR  --- 11 message 32 [0 ffffffff 11 800] ------- [17:255 -1:255 32 0] 
r 0.692229644 _13_ RTR  --- 11 message 32 [0 ffffffff 11 800] ------- [17:255 -1:255 32 0] 
r 0.692229668 _10_ RTR  --- 11 message 32 [0 ffffffff 11 800] ------- [17:255 -1:255 32 0] 
r 0.692229671 _6_ RTR  --- 11 message 32 [0 ffffffff 11 800] ------- [17:255 -1:255 32 0] 
r 0.692229682 _32_ RTR  --- 11 message 32 [0 ffffffff 11 800] ------- [17:255 -1:255 32 0] 
r 0.692229690 _9_ RTR  --- 11 message 32 [0 ffffffff 11 800] ------- [17:255 -1:255 32 0] 
r 0.692229701 _27_ RTR  --- 11 message 32 [0 ffffffff 11 800] ------- [17:255 -1:255 32 0] 
r 0.692229713 _34_ RTR  --- 11 message 32 [0 ffffffff 11 800] ------- [17:255 -1:255 32 0] 
r 0.692229730 _23_ RTR  --- 11 message 32 [0 ffffffff 11 800] ------- [17:255 -1:255 32 0] 
r 0.692229734 _12_ RTR  --- 11 message 32 [0 ffffffff 11 800] ------- [17:255 -1:255 32 0] 
r 0.692229798 _7_ RTR  --- 11 message 32 [0 ffffffff 11 800] ------- [17:255 -1:255 32 0] 
r 0.692229817 _2_ RTR  --- 11 message 32 [0 ffffffff 11 800] ------- [17:255 -1:255 32 0] 
s 0.823341127 _0_ RTR  --- 12 message 32 [0 0 0 0] ------- [0:255 -1:255 32 0] 
r 0.827071324 _3_ RTR  --- 12 message 32 [0 ffffffff 0 800] ------- [0:255 -1:255 32 0] 
r 0.827071355 _17_ RTR  --- 12 message 32 [0 ffffffff 0 800] ------- [0:255 -1:255 32 0] 
r 0.827071409 _14_ RTR  --- 12 message 32 [0 ffffffff 0 800] ------- [0:255 -1:255 32 0] 
r 0.827071537 _26_ RTR  --- 12 message 32 [0 ffffffff 0 800] ------- [0:255 -1:255 32 0] 
r 0.827071588 _6_ RTR  --- 12 message 32 [0 ffffffff 0 800] ------- [0:255 -1:255 32 0] 
r 0.827071597 _32_ RTR  --- 12 message 32 [0 ffffffff 0 800] ------- [0:255 -1:255 32 0] 
r 0.827071625 _23_ RTR  --- 12 message 32 [0 ffffffff 0 800] ------- [0:255 -1:255 32 0] 
r 0.827071735 _27_ RTR  --- 12 message 32 [0 ffffffff 0 800] ------- [0:255 -1:255 32 0] 
r 0.827071736 _22_ RTR  --- 12 message 32 [0 ffffffff 0 800] ------- [0:255 -1:255 32 0] 
r 0.827071739 _11_ RTR  --- 12 message 32 [0 ffffffff 0 800] ------- [0:255 -1:255 32 0] 
r 0.827071817 _24_ RTR  --- 12 message 32 [0 ffffffff 0 800] ------- [0:255 -1:255 32 0] 
r 0.827071820 _36_ RTR  --- 12 message 32 [0 ffffffff 0 800] ------- [0:255 -1:255 32 0] 
r 0.827071829 _10_ RTR  --- 12 message 32 [0 ffffffff 0 800] ------- [0:255 -1:255 32 0] 
r 0.827071837 _30_ RTR  --- 12 message 32 [0 ffffffff 0 800] ------- [0:255 -1:255 32 0] 
r 0.827071873 _15_ RTR  --- 12 message 32 [0 ffffffff 0 800] ------- [0:255 -1:255 32 0] 
r 0.827071944 _18_ RTR  --- 12 message 32 [0 ffffffff 0 800] ------- [0:255 -1:255 32 0] 
r 0.827071949 _13_ RTR  --- 12 message 32 [0 ffffffff 0 800] ------- [0:255 -1:255 32 0] 
r 0.827071957 _4_ RTR  --- 12 message 32 [0 ffffffff 0 800] ------- [0:255 -1:255 32 0] 
s 0.869518150 _20_ RTR  --- 13 message 32 [0 0 0 0] ------- [20:255 -1:255 32 0] 
r 0.873888272 _21_ RTR  --- 13 message 32 [0 ffffffff 14 800] ------- [20:255 -1:255 32 0] 
r 0.873888452 _18_ RTR  --- 13 message 32 [0 ffffffff 14 800] ------- [20:255 -1:255 32 0] 
r 0.873888484 _27_ RTR  --- 13 message 32 [0 ffffffff 14 800] ------- [20:255 -1:255 32 0] 
r 0.873888489 _24_ RTR  --- 13 message 32 [0 ffffffff 14 800] ------- [20:255 -1:255 32 0] 
r 0.873888495 _15_ RTR  --- 13 message 32 [0 ffffffff 14 800] ------- [20:255 -1:255 32 0] 
r 0.873888504 _4_ RTR  --- 13 message 32 [0 ffffffff 14 800] ------- [20:255 -1:255 32 0] 
r 0.873888640 _28_ RTR  --- 13 message 32 [0 ffffffff 14 800] ------- [20:255 -1:255 32 0] 
r 0.873888701 _5_ RTR  --- 13 message 32 [0 ffffffff 14 800] ------- [20:255 -1:255 32 0] 
r 0.873888740 _2_ RTR  --- 13 message 32 [0 ffffffff 14 800] ------- [20:255 -1:255 32 0] 
r 0.873888776 _37_ RTR  --- 13 message 32 [0 ffffffff 14 800] ------- [20:255 -1:255 32 0] 
r 0.873888804 _25_ RTR  --- 13 message 32 [0 ffffffff 14 800] ------- [20:255 -1:255 32 0] 
r 0.873888878 _3_ RTR  --- 13 message 32 [0 ffffffff 14 800] ------- [20:255 -1:255 32 0] 
r 0.873888911 _14_ RTR  --- 13 message 32 [0 ffffffff 14 800] ------- [20:255 -1:255 32 0] 
r 0.873888965 _19_ RTR  --- 13 message 32 [0 ffffffff 14 800] ------- [20:255 -1:255 32 0] 
r 0.873888966 _11_ RTR  --- 13 message 32 [0 ffffffff 14 800] ------- [20:255 -1:255 32 0] 
s 0.888004996 _22_ RTR  --- 14 message 32 [0 0 0 0] ------- [22:255 -1:255 32 0] 
r 0.892695098 _10_ RTR  --- 14 message 32 [0 ffffffff 16 800] ------- [22:255 -1:255 32 0] 
r 0.892695559 _17_ RTR  --- 14 message 32 [0 ffffffff 16 800] ------- [22:255 -1:255 32 0] 
r 0.892695584 _36_ RTR  --- 14 message 32 [0 ffffffff 16 800] ------- [22:255 -1:255 32 0] 
r 0.892695605 _0_ RTR  --- 14 message 32 [0 ffffffff 16 800] ------- [22:255 -1:255 32 0] 
r 0.892695673 _30_ RTR  --- 14 message 32 [0 ffffffff 16 800] ------- [22:255 -1:255 32 0] 
r 0.892695700 _6_ RTR  --- 14 message 32 [0 ffffffff 16 800] ------- [22:255 -1:255 32 0] 
r 0.892695715 _32_ RTR  --- 14 message 32 [0 ffffffff 16 800] ------- [22:255 -1:255 32 0] 
r 0.892695783 _26_ RTR  --- 14 message 32 [0 ffffffff 16 800] ------- [22:255 -1:255 32 0] 
r 0.892695788 _3_ RTR  --- 14 message 32 [0 ffffffff 16 800] ------- [22:255 -1:255 32 0] 
r 0.892695805 _14_ RTR  --- 14 message 32 [0 ffffffff 16 800] ------- [22:255 -1:255 32 0] 
s 0.920026829 _24_ RTR  --- 15 message 32 [0 0 0 0] ------- [24:255 -1:255 32 0] 
r 0.923436893 _15_ RTR  --- 15 message 32 [0 ffffffff 18 800] ------- [24:255 -1:255 32 0] 
r 0.923436955 _18_ RTR  --- 15 message 32 [0 ffffffff 18 800] ------- [24:255 -1:255 32 0] 
r 0.923436978 _4_ RTR  --- 15 message 32 [0 ffffffff 18 800] ------- [24:255 -1:255 32 0] 
r 0.923437139 _28_ RTR  --- 15 message 32 [0 ffffffff 18 800] ------- [24:255 -1:255 32 0] 
r 0.923437167 _20_ RTR  --- 15 message 32 [0 ffffffff 18 800] ------- [24:255 -1:255 32 0] 
r 0.923437182 _27_ RTR  --- 15 message 32 [0 ffffffff 18 800] ------- [24:255 -1:255 32 0] 
r 0.923437203 _25_ RTR  --- 15 message 32 [0 ffffffff 18 800] ------- [24:255 -1:255 32 0] 
r 0.923437284 _21_ RTR  --- 15 message 32 [0 ffffffff 18 800] ------- [24:255 -1:255 32 0] 
r 0.923437304 _14_ RTR  --- 15 message 32 [0 ffffffff 18 800] ------- [24:255 -1:255 32 0] 
r 0.923437323 _3_ RTR  --- 15 message 32 [0 ffffffff 18 800] ------- [24:255 -1:255 32 0] 
r 0.923437357 _23_ RTR  --- 15 message 32 [0 ffffffff 18 800] ------- [24:255 -1:255 32 0] 
r 0.923437425 _26_ RTR  --- 15 message 32 [0 ffffffff 18 800] ------- [24:255 -1:255 32 0] 
r 0.923437519 _0_ RTR  --- 15 message 32 [0 ffffffff 18 800] ------- [24:255 -1:255 32 0] 
r 0.923437564 _32_ RTR  --- 15 message 32 [0 ffffffff 18 800] ------- [24:255 -1:255 32 0] 
r 0.923437570 _6_ RTR  --- 15 message 32 [0 ffffffff 18 800] ------- [24:255 -1:255 32 0] 
r 0.923437585 _2_ RTR  --- 15 message 32 [0 ffffffff 18 800] ------- [24:255 -1:255 32 0] 
r 0.923437652 _5_ RTR  --- 15 message 32 [0 ffffffff 18 800] ------- [24:255 -1:255 32 0] 
s 0.963723742 _38_ RTR  --- 16 message 32 [0 0 0 0] ------- [38:255 -1:255 32 0] 
r 0.967773864 _39_ RTR  --- 16 message 32 [0 ffffffff 26 800] ------- [38:255 -1:255 32 0] 
r 0.967773879 _34_ RTR  --- 16 message 32 [0 ffffffff 26 800] ------- [38:255 -1:255 32 0] 
r 0.967773916 _1_ RTR  --- 16 message 32 [0 ffffffff 26 800] ------- [38:255 -1:255 32 0] 
r 0.967773943 _9_ RTR  --- 16 message 32 [0 ffffffff 26 800] ------- [38:255 -1:255 32 0] 
r 0.967773946 _33_ RTR  --- 16 message 32 [0 ffffffff 26 800] ------- [38:255 -1:255 32 0] 
r 0.967773997 _13_ RTR  --- 16 message 32 [0 ffffffff 26 800] ------- [38:255 -1:255 32 0] 
r 0.967774031 _7_ RTR  --- 16 message 32 [0 ffffffff 26 800] ------- [38:255 -1:255 32 0] 
r 0.967774035 _16_ RTR  --- 16 message 32 [0 ffffffff 26 800] ------- [38:255 -1:255 32 0] 
r 0.967774148 _29_ RTR  --- 16 message 32 [0 ffffffff 26 800] ------- [38:255 -1:255 32 0] 
r 0.967774241 _8_ RTR  --- 16 message 32 [0 ffffffff 26 800] ------- [38:255 -1:255 32 0] 
r 0.967774261 _12_ RTR  --- 16 message 32 [0 ffffffff 26 800] ------- [38:255 -1:255 32 0] 
r 0.967774278 _35_ RTR  --- 16 message 32 [0 ffffffff 26 800] ------- [38:255 -1:255 32 0] 
r 0.967774318 _30_ RTR  --- 16 message 32 [0 ffffffff 26 800] ------- [38:255 -1:255 32 0] 
r 0.967774330 _11_ RTR  --- 16 message 32 [0 ffffffff 26 800] ------- [38:255 -1:255 32 0] 
r 0.967774416 _36_ RTR  --- 16 message 32 [0 ffffffff 26 800] ------- [38:255 -1:255 32 0] 
r 0.967774572 _2_ RTR  --- 16 message 32 [0 ffffffff 26 800] ------- [38:255 -1:255 32 0] 
s 0.974323794 _2_ RTR  --- 17 message 32 [0 0 0 0] ------- [2:255 -1:255 32 0] 
r 0.978054006 _37_ RTR  --- 17 message 32 [0 ffffffff 2 800] ------- [2:255 -1:255 32 0] 
r 0.978054076 _5_ RTR  --- 17 message 32 [0 ffffffff 2 800] ------- [2:255 -1:255 32 0] 
r 0.978054105 _12_ RTR  --- 17 message 32 [0 ffffffff 2 800] ------- [2:255 -1:255 32 0] 
r 0.978054151 _11_ RTR  --- 17 message 32 [0 ffffffff 2 800] ------- [2:255 -1:255 32 0] 
r 0.978054205 _27_ RTR  --- 17 message 32 [0 ffffffff 2 800] ------- [2:255 -1:255 32 0] 
r 0.978054211 _8_ RTR  --- 17 message 32 [0 ffffffff 2 800] ------- [2:255 -1:255 32 0] 
r 0.978054247 _35_ RTR  --- 17 message 32 [0 ffffffff 2 800] ------- [2:255 -1:255 32 0] 
r 0.978054325 _21_ RTR  --- 17 message 32 [0 ffffffff 2 800] ------- [2:255 -1:255 32 0] 
r 0.978054325 _29_ RTR  --- 17 message 32 [0 ffffffff 2 800] ------- [2:255 -1:255 32 0] 
r 0.978054344 _7_ RTR  --- 17 message 32 [0 ffffffff 2 800] ------- [2:255 -1:255 32 0] 
r 0.978054383 _20_ RTR  --- 17 message 32 [0 ffffffff 2 800] ------- [2:255 -1:255 32 0] 
r 0.978054408 _13_ RTR  --- 17 message 32 [0 ffffffff 2 800] ------- [2:255 -1:255 32 0] 
r 0.978054448 _9_ RTR  --- 17 message 32 [0 ffffffff 2 800] ------- [2:255 -1:255 32 0] 
r 0.978054480 _19_ RTR  --- 17 message 32 [0 ffffffff 2 800] ------- [2:255 -1:255 32 0] 
r 0.978054484 _31_ RTR  --- 17 message 32 [0 ffffffff 2 800] ------- [2:255 -1:255 32 0] 
r 0.978054550 _24_ RTR  --- 17 message 32 [0 ffffffff 2 800] ------- [2:255 -1:255 32 0] 
r 0.978054560 _3_ RTR  --- 17 message 32 [0 ffffffff 2 800] ------- [2:255 -1:255 32 0] 
r 0.978054563 _34_ RTR  --- 17 message 32 [0 ffffffff 2 800] ------- [2:255 -1:255 32 0] 
r 0.978054597 _1_ RTR  --- 17 message 32 [0 ffffffff 2 800] ------- [2:255 -1:255 32 0] 
r 0.978054600 _15_ RTR  --- 17 message 32 [0 ffffffff 2 800] ------- [2:255 -1:255 32 0] 
r 0.978054604 _18_ RTR  --- 17 message 32 [0 ffffffff 2 800] ------- [2:255 -1:255 32 0] 
r 0.978054607 _17_ RTR  --- 17 message 32 [0 ffffffff 2 800] ------- [2:255 -1:255 32 0] 
r 0.978054623 _38_ RTR  --- 17 message 32 [0 ffffffff 2 800] ------- [2:255 -1:255 32 0] 
M 1.00000 0 (144.00, 302.00, 0.00), (448.00, 283.00), 4.00
M 1.00000 1 (482.00, 385.00, 0.00), (398.00, 443.00), 1.00
M 1.00000 2 (362.00, 176.00, 0.00), (90.00, 185.00), 2.00
M 1.00000 3 (142.00, 243.00, 0.00), (78.00, 106.00), 2.00
M 1.00000 4 (134.00, 53.00, 0.00), (309.00, 155.00), 1.00
M 1.00000 5 (397.00, 99.00, 0.00), (104.00, 88.00), 2.00
M 1.00000 6 (10.00, 268.00, 0.00), (496.00, 187.00), 4.00
M 1.00000 7 (429.00, 327.00, 0.00), (218.00, 9.00), 3.00
M 1.00000 8 (451.00, 264.00, 0.00), (231.00, 23.00), 3.00
M 1.00000 9 (397.00, 369.00, 0.00), (91.00, 247.00), 2.00
M 1.00000 10 (49.00, 490.00, 0.00), (160.00, 317.00), 3.00
M 1.00000 11 (326.00, 277.00, 0.00), (141.00, 408.00), 5.00
M 1.00000 12 (393.00, 264.00, 0.00), (50.00, 80.00), 1.00
M 1.00000 13 (384.00, 359.00, 0.00), (355.00, 324.00), 3.00
M 1.00000 14 (101.00, 229.00, 0.00), (286.00, 188.00), 2.00
M 1.00000 15 (141.00, 78.00, 0.00), (488.00, 262.00), 1.00
M 1.00000 16 (450.00, 500.00, 0.00), (187.00, 350.00), 4.00
M 1.00000 17 (192.00, 351.00, 0.00), (483.00, 491.00), 4.00
M 1.00000 18 (150.00, 57.00, 0.00), (169.00, 121.00), 2.00
M 1.00000 19 (481.00, 8.00, 0.00), (484.00, 85.00), 5.00
M 1.00000 20 (240.00, 48.00, 0.00), (118.00, 343.00), 1.00
M 1.00000 21 (276.00, 42.00, 0.00), (336.00, 203.00), 1.00
M 1.00000 22 (72.00, 470.00, 0.00), (59.00, 183.00), 1.00
M 1.00000 23 (33.00, 202.00, 0.00), (14.00, 109.00), 4.00
M 1.00000 24 (150.00, 95.00, 0.00), (51.00, 347.00), 4.00
M 1.00000 25 (44.00, 58.00, 0.00), (199.00, 3.00), 5.00
M 1.00000 26 (40.00, 236.00, 0.00), (463.00, 154.00), 3.00
M 1.00000 27 (242.00, 148.00, 0.00), (497.00, 136.00), 1.00
M 1.00000 28 (96.00, 19.00, 0.00), (167.00, 475.00), 4.00
M 1.00000 29 (468.00, 295.00, 0.00), (442.00, 389.00), 2.00
M 1.00000 30 (275.00, 470.00, 0.00), (293.00, 57.00), 4.00
M 1.00000 31 (492.00, 15.00, 0.00), (82.00, 297.00), 4.00