s 0.036328457 _11_ RTR  --- 0 message 32 [0 0 0 0] ------- [11:255 -1:255 32 0] 
r 0.038778685 _12_ RTR  --- 0 message 32 [0 ffffffff b 800] ------- [11:255 -1:255 32 0] 
r 0.038778792 _13_ RTR  --- 0 message 32 [0 ffffffff b 800] ------- [11:255 -1:255 32 0] 
r 0.038778815 _2_ RTR  --- 0 message 32 [0 ffffffff b 800] ------- [11:255 -1:255 32 0] 
r 0.038778839 _7_ RTR  --- 0 message 32 [0 ffffffff b 800] ------- [11:255 -1:255 32 0] 
r 0.038778844 _9_ RTR  --- 0 message 32 [0 ffffffff b 800] ------- [11:255 -1:255 32 0] 
r 0.038778876 _8_ RTR  --- 0 message 32 [0 ffffffff b 800] ------- [11:255 -1:255 32 0] 
r 0.038778934 _29_ RTR  --- 0 message 32 [0 ffffffff b 800] ------- [11:255 -1:255 32 0] 
r 0.038778944 _34_ RTR  --- 0 message 32 [0 ffffffff b 800] ------- [11:255 -1:255 32 0] 
r 0.038778949 _35_ RTR  --- 0 message 32 [0 ffffffff b 800] ------- [11:255 -1:255 32 0] 
r 0.038778967 _17_ RTR  --- 0 message 32 [0 ffffffff b 800] ------- [11:255 -1:255 32 0] 
r 0.038778970 _27_ RTR  --- 0 message 32 [0 ffffffff b 800] ------- [11:255 -1:255 32 0] 
r 0.038779012 _37_ RTR  --- 0 message 32 [0 ffffffff b 800] ------- [11:255 -1:255 32 0] 
r 0.038779044 _38_ RTR  --- 0 message 32 [0 ffffffff b 800] ------- [11:255 -1:255 32 0] 
r 0.038779069 _0_ RTR  --- 0 message 32 [0 ffffffff b 800] ------- [11:255 -1:255 32 0] 
r 0.038779081 _3_ RTR  --- 0 message 32 [0 ffffffff b 800] ------- [11:255 -1:255 32 0] 
r 0.038779090 _1_ RTR  --- 0 message 32 [0 ffffffff b 800] ------- [11:255 -1:255 32 0] 
r 0.038779096 _5_ RTR  --- 0 message 32 [0 ffffffff b 800] ------- [11:255 -1:255 32 0] 
r 0.038779123 _30_ RTR  --- 0 message 32 [0 ffffffff b 800] ------- [11:255 -1:255 32 0] 
r 0.038779160 _39_ RTR  --- 0 message 32 [0 ffffffff b 800] ------- [11:255 -1:255 32 0] 
r 0.038779188 _36_ RTR  --- 0 message 32 [0 ffffffff b 800] ------- [11:255 -1:255 32 0] 
r 0.038779208 _33_ RTR  --- 0 message 32 [0 ffffffff b 800] ------- [11:255 -1:255 32 0] 
r 0.038779224 _14_ RTR  --- 0 message 32 [0 ffffffff b 800] ------- [11:255 -1:255 32 0] 
r 0.038779258 _21_ RTR  --- 0 message 32 [0 ffffffff b 800] ------- [11:255 -1:255 32 0] 
r 0.038779272 _20_ RTR  --- 0 message 32 [0 ffffffff b 800] ------- [11:255 -1:255 32 0] 
s 0.073282045 _4_ RTR  --- 1 message 32 [0 0 0 0] ------- [4:255 -1:255 32 0] 
r 0.076692100 _18_ RTR  --- 1 message 32 [0 ffffffff 4 800] ------- [4:255 -1:255 32 0] 
r 0.076692132 _15_ RTR  --- 1 message 32 [0 ffffffff 4 800] ------- [4:255 -1:255 32 0] 
r 0.076692195 _24_ RTR  --- 1 message 32 [0 ffffffff 4 800] ------- [4:255 -1:255 32 0] 
r 0.076692215 _28_ RTR  --- 1 message 32 [0 ffffffff 4 800] ------- [4:255 -1:255 32 0] 
r 0.076692346 _25_ RTR  --- 1 message 32 [0 ffffffff 4 800] ------- [4:255 -1:255 32 0] 
r 0.076692399 _20_ RTR  --- 1 message 32 [0 ffffffff 4 800] ------- [4:255 -1:255 32 0] 
r 0.076692520 _21_ RTR  --- 1 message 32 [0 ffffffff 4 800] ------- [4:255 -1:255 32 0] 
r 0.076692525 _27_ RTR  --- 1 message 32 [0 ffffffff 4 800] ------- [4:255 -1:255 32 0] 
r 0.076692642 _14_ RTR  --- 1 message 32 [0 ffffffff 4 800] ------- [4:255 -1:255 32 0] 
r 0.076692645 _23_ RTR  --- 1 message 32 [0 ffffffff 4 800] ------- [4:255 -1:255 32 0] 
r 0.076692679 _3_ RTR  --- 1 message 32 [0 ffffffff 4 800] ------- [4:255 -1:255 32 0] 
r 0.076692731 _26_ RTR  --- 1 message 32 [0 ffffffff 4 800] ------- [4:255 -1:255 32 0] 
r 0.076692864 _32_ RTR  --- 1 message 32 [0 ffffffff 4 800] ------- [4:255 -1:255 32 0] 
r 0.076692872 _6_ RTR  --- 1 message 32 [0 ffffffff 4 800] ------- [4:255 -1:255 32 0] 
r 0.076692876 _0_ RTR  --- 1 message 32 [0 ffffffff 4 800] ------- [4:255 -1:255 32 0] 
s 0.088584275 _31_ RTR  --- 2 message 32 [0 0 0 0] ------- [31:255 -1:255 32 0] 
r 0.092634318 _19_ RTR  --- 2 message 32 [0 ffffffff 1f 800] ------- [31:255 -1:255 32 0] 
r 0.092634697 _5_ RTR  --- 2 message 32 [0 ffffffff 1f 800] ------- [31:255 -1:255 32 0] 
r 0.092634755 _37_ RTR  --- 2 message 32 [0 ffffffff 1f 800] ------- [31:255 -1:255 32 0] 
r 0.092634964 _2_ RTR  --- 2 message 32 [0 ffffffff 1f 800] ------- [31:255 -1:255 32 0] 
r 0.092635000 _21_ RTR  --- 2 message 32 [0 ffffffff 1f 800] ------- [31:255 -1:255 32 0] 
r 0.092635081 _35_ RTR  --- 2 message 32 [0 ffffffff 1f 800] ------- [31:255 -1:255 32 0] 
s 0.126846076 _36_ RTR  --- 3 message 32 [0 0 0 0] ------- [36:255 -1:255 32 0] 
s 0.129642904 _28_ RTR  --- 4 message 32 [0 0 0 0] ------- [28:255 -1:255 32 0] 
r 0.130896174 _30_ RTR  --- 3 message 32 [0 ffffffff 24 800] ------- [36:255 -1:255 32 0] 
r 0.130896551 _17_ RTR  --- 3 message 32 [0 ffffffff 24 800] ------- [36:255 -1:255 32 0] 
r 0.130896639 _34_ RTR  --- 3 message 32 [0 ffffffff 24 800] ------- [36:255 -1:255 32 0] 
r 0.130896664 _22_ RTR  --- 3 message 32 [0 ffffffff 24 800] ------- [36:255 -1:255 32 0] 
r 0.130896687 _13_ RTR  --- 3 message 32 [0 ffffffff 24 800] ------- [36:255 -1:255 32 0] 
r 0.130896699 _9_ RTR  --- 3 message 32 [0 ffffffff 24 800] ------- [36:255 -1:255 32 0] 
r 0.130896700 _33_ RTR  --- 3 message 32 [0 ffffffff 24 800] ------- [36:255 -1:255 32 0] 
r 0.130896740 _10_ RTR  --- 3 message 32 [0 ffffffff 24 800] ------- [36:255 -1:255 32 0] 
r 0.130896750 _38_ RTR  --- 3 message 32 [0 ffffffff 24 800] ------- [36:255 -1:255 32 0] 
r 0.130896752 _16_ RTR  --- 3 message 32 [0 ffffffff 24 800] ------- [36:255 -1:255 32 0] 
r 0.130896769 _0_ RTR  --- 3 message 32 [0 ffffffff 24 800] ------- [36:255 -1:255 32 0] 
r 0.130896807 _11_ RTR  --- 3 message 32 [0 ffffffff 24 800] ------- [36:255 -1:255 32 0] 
r 0.130896831 _39_ RTR  --- 3 message 32 [0 ffffffff 24 800] ------- [36:255 -1:255 32 0] 
r 0.130896870 _7_ RTR  --- 3 message 32 [0 ffffffff 24 800] ------- [36:255 -1:255 32 0] 
r 0.133373074 _4_ RTR  --- 4 message 32 [0 ffffffff 1c 800] ------- [28:255 -1:255 32 0] 
r 0.133373121 _25_ RTR  --- 4 message 32 [0 ffffffff 1c 800] ------- [28:255 -1:255 32 0] 
r 0.133373124 _18_ RTR  --- 4 message 32 [0 ffffffff 1c 800] ------- [28:255 -1:255 32 0] 
r 0.133373152 _15_ RTR  --- 4 message 32 [0 ffffffff 1c 800] ------- [28:255 -1:255 32 0] 
r 0.133373215 _24_ RTR  --- 4 message 32 [0 ffffffff 1c 800] ------- [28:255 -1:255 32 0] 
r 0.133373394 _20_ RTR  --- 4 message 32 [0 ffffffff 1c 800] ------- [28:255 -1:255 32 0] 
r 0.133373509 _21_ RTR  --- 4 message 32 [0 ffffffff 1c 800] ------- [28:255 -1:255 32 0] 
r 0.133373549 _23_ RTR  --- 4 message 32 [0 ffffffff 1c 800] ------- [28:255 -1:255 32 0] 
r 0.133373554 _27_ RTR  --- 4 message 32 [0 ffffffff 1c 800] ------- [28:255 -1:255 32 0] 
r 0.133373604 _14_ RTR  --- 4 message 32 [0 ffffffff 1c 800] ------- [28:255 -1:255 32 0] 
r 0.133373651 _26_ RTR  --- 4 message 32 [0 ffffffff 1c 800] ------- [28:255 -1:255 32 0] 
r 0.133373667 _3_ RTR  --- 4 message 32 [0 ffffffff 1c 800] ------- [28:255 -1:255 32 0] 
s 0.247164037 _15_ RTR  --- 5 message 32 [0 0 0 0] ------- [15:255 -1:255 32 0] 
r 0.250574101 _24_ RTR  --- 5 message 32 [0 ffffffff f 800] ------- [15:255 -1:255 32 0] 
r 0.250574113 _18_ RTR  --- 5 message 32 [0 ffffffff f 800] ------- [15:255 -1:255 32 0] 
r 0.250574123 _4_ RTR  --- 5 message 32 [0 ffffffff f 800] ------- [15:255 -1:255 32 0] 
r 0.250574284 _28_ RTR  --- 5 message 32 [0 ffffffff f 800] ------- [15:255 -1:255 32 0] 
r 0.250574367 _25_ RTR  --- 5 message 32 [0 ffffffff f 800] ------- [15:255 -1:255 32 0] 
r 0.250574382 _20_ RTR  --- 5 message 32 [0 ffffffff f 800] ------- [15:255 -1:255 32 0] 
r 0.250574446 _27_ RTR  --- 5 message 32 [0 ffffffff f 800] ------- [15:255 -1:255 32 0] 
r 0.250574502 _21_ RTR  --- 5 message 32 [0 ffffffff f 800] ------- [15:255 -1:255 32 0] 
r 0.250574557 _14_ RTR  --- 5 message 32 [0 ffffffff f 800] ------- [15:255 -1:255 32 0] 
r 0.250574585 _23_ RTR  --- 5 message 32 [0 ffffffff f 800] ------- [15:255 -1:255 32 0] 
r 0.250574587 _3_ RTR  --- 5 message 32 [0 ffffffff f 800] ------- [15:255 -1:255 32 0] 
r 0.250574662 _26_ RTR  --- 5 message 32 [0 ffffffff f 800] ------- [15:255 -1:255 32 0] 
r 0.250574783 _0_ RTR  --- 5 message 32 [0 ffffffff f 800] ------- [15:255 -1:255 32 0] 
r 0.250574799 _32_ RTR  --- 5 message 32 [0 ffffffff f 800] ------- [15:255 -1:255 32 0] 
r 0.250574806 _6_ RTR  --- 5 message 32 [0 ffffffff f 800] ------- [15:255 -1:255 32 0] 
r 0.250574843 _2_ RTR  --- 5 message 32 [0 ffffffff f 800] ------- [15:255 -1:255 32 0] 
s 0.321822596 _26_ RTR  --- 6 message 32 [0 0 0 0] ------- [26:255 -1:255 32 0] 
r 0.324272712 _23_ RTR  --- 6 message 32 [0 ffffffff 1a 800] ------- [26:255 -1:255 32 0] 
r 0.324272738 _32_ RTR  --- 6 message 32 [0 ffffffff 1a 800] ------- [26:255 -1:255 32 0] 
r 0.324272743 _6_ RTR  --- 6 message 32 [0 ffffffff 1a 800] ------- [26:255 -1:255 32 0] 
r 0.324272801 _14_ RTR  --- 6 message 32 [0 ffffffff 1a 800] ------- [26:255 -1:255 32 0] 
r 0.324272937 _3_ RTR  --- 6 message 32 [0 ffffffff 1a 800] ------- [26:255 -1:255 32 0] 
r 0.324273007 _0_ RTR  --- 6 message 32 [0 ffffffff 1a 800] ------- [26:255 -1:255 32 0] 
r 0.324273190 _25_ RTR  --- 6 message 32 [0 ffffffff 1a 800] ------- [26:255 -1:255 32 0] 
r 0.324273193 _24_ RTR  --- 6 message 32 [0 ffffffff 1a 800] ------- [26:255 -1:255 32 0] 
r 0.324273221 _15_ RTR  --- 6 message 32 [0 ffffffff 1a 800] ------- [26:255 -1:255 32 0] 
r 0.324273232 _17_ RTR  --- 6 message 32 [0 ffffffff 1a 800] ------- [26:255 -1:255 32 0] 
r 0.324273282 _4_ RTR  --- 6 message 32 [0 ffffffff 1a 800] ------- [26:255 -1:255 32 0] 
r 0.324273297 _18_ RTR  --- 6 message 32 [0 ffffffff 1a 800] ------- [26:255 -1:255 32 0] 
r 0.324273331 _27_ RTR  --- 6 message 32 [0 ffffffff 1a 800] ------- [26:255 -1:255 32 0] 
r 0.324273343 _28_ RTR  --- 6 message 32 [0 ffffffff 1a 800] ------- [26:255 -1:255 32 0] 
r 0.324273384 _22_ RTR  --- 6 message 32 [0 ffffffff 1a 800] ------- [26:255 -1:255 32 0] 
s 0.349191800 _3_ RTR  --- 7 message 32 [0 0 0 0] ------- [3:255 -1:255 32 0] 
r 0.352921945 _14_ RTR  --- 7 message 32 [0 ffffffff 3 800] ------- [3:255 -1:255 32 0] 
r 0.352921997 _0_ RTR  --- 7 message 32 [0 ffffffff 3 800] ------- [3:255 -1:255 32 0] 
r 0.352922141 _26_ RTR  --- 7 message 32 [0 ffffffff 3 800] ------- [3:255 -1:255 32 0] 
r 0.352922188 _23_ RTR  --- 7 message 32 [0 ffffffff 3 800] ------- [3:255 -1:255 32 0] 
r 0.352922197 _17_ RTR  --- 7 message 32 [0 ffffffff 3 800] ------- [3:255 -1:255 32 0] 
r 0.352922248 _6_ RTR  --- 7 message 32 [0 ffffffff 3 800] ------- [3:255 -1:255 32 0] 
r 0.352922252 _32_ RTR  --- 7 message 32 [0 ffffffff 3 800] ------- [3:255 -1:255 32 0] 
r 0.352922260 _27_ RTR  --- 7 message 32 [0 ffffffff 3 800] ------- [3:255 -1:255 32 0] 
r 0.352922294 _24_ RTR  --- 7 message 32 [0 ffffffff 3 800] ------- [3:255 -1:255 32 0] 
r 0.352922350 _15_ RTR  --- 7 message 32 [0 ffffffff 3 800] ------- [3:255 -1:255 32 0] 
r 0.352922421 _18_ RTR  --- 7 message 32 [0 ffffffff 3 800] ------- [3:255 -1:255 32 0] 
r 0.352922424 _11_ RTR  --- 7 message 32 [0 ffffffff 3 800] ------- [3:255 -1:255 32 0] 
r 0.352922434 _4_ RTR  --- 7 message 32 [0 ffffffff 3 800] ------- [3:255 -1:255 32 0] 
r 0.352922498 _25_ RTR  --- 7 message 32 [0 ffffffff 3 800] ------- [3:255 -1:255 32 0] 
r 0.352922528 _20_ RTR  --- 7 message 32 [0 ffffffff 3 800] ------- [3:255 -1:255 32 0] 
r 0.352922563 _28_ RTR  --- 7 message 32 [0 ffffffff 3 800] ------- [3:255 -1:255 32 0] 
r 0.352922567 _2_ RTR  --- 7 message 32 [0 ffffffff 3 800] ------- [3:255 -1:255 32 0] 
r 0.352922592 _22_ RTR  --- 7 message 32 [0 ffffffff 3 800] ------- [3:255 -1:255 32 0] 
r 0.352922606 _21_ RTR  --- 7 message 32 [0 ffffffff 3 800] ------- [3:255 -1:255 32 0] 
s 0.356017125 _29_ RTR  --- 8 message 32 [0 0 0 0] ------- [29:255 -1:255 32 0] 
r 0.359427243 _8_ RTR  --- 8 message 32 [0 ffffffff 1d 800] ------- [29:255 -1:255 32 0] 
r 0.359427256 _35_ RTR  --- 8 message 32 [0 ffffffff 1d 800] ------- [29:255 -1:255 32 0] 
r 0.359427293 _7_ RTR  --- 8 message 32 [0 ffffffff 1d 800] ------- [29:255 -1:255 32 0] 
r 0.359427395 _12_ RTR  --- 8 message 32 [0 ffffffff 1d 800] ------- [29:255 -1:255 32 0] 
r 0.359427429 _1_ RTR  --- 8 message 32 [0 ffffffff 1d 800] ------- [29:255 -1:255 32 0] 
r 0.359427467 _9_ RTR  --- 8 message 32 [0 ffffffff 1d 800] ------- [29:255 -1:255 32 0] 
r 0.359427477 _13_ RTR  --- 8 message 32 [0 ffffffff 1d 800] ------- [29:255 -1:255 32 0] 
r 0.359427531 _38_ RTR  --- 8 message 32 [0 ffffffff 1d 800] ------- [29:255 -1:255 32 0] 
r 0.359427557 _34_ RTR  --- 8 message 32 [0 ffffffff 1d 800] ------- [29:255 -1:255 32 0] 
r 0.359427582 _39_ RTR  --- 8 message 32 [0 ffffffff 1d 800] ------- [29:255 -1:255 32 0] 
r 0.359427602 _11_ RTR  --- 8 message 32 [0 ffffffff 1d 800] ------- [29:255 -1:255 32 0] 
r 0.359427656 _2_ RTR  --- 8 message 32 [0 ffffffff 1d 800] ------- [29:255 -1:255 32 0] 
r 0.359427704 _37_ RTR  --- 8 message 32 [0 ffffffff 1d 800] ------- [29:255 -1:255 32 0] 
r 0.359427732 _33_ RTR  --- 8 message 32 [0 ffffffff 1d 800] ------- [29:255 -1:255 32 0] 
r 0.359427811 _16_ RTR  --- 8 message 32 [0 ffffffff 1d 800] ------- [29:255 -1:255 32 0] 
r 0.359427820 _5_ RTR  --- 8 message 32 [0 ffffffff 1d 800] ------- [29:255 -1:255 32 0] 
s 0.421784672 _10_ RTR  --- 9 message 32 [0 0 0 0] ------- [10:255 -1:255 32 0] 
r 0.425514774 _22_ RTR  --- 9 message 32 [0 ffffffff a 800] ------- [10:255 -1:255 32 0] 
r 0.425515336 _36_ RTR  --- 9 message 32 [0 ffffffff a 800] ------- [10:255 -1:255 32 0] 
r 0.425515337 _17_ RTR  --- 9 message 32 [0 ffffffff a 800] ------- [10:255 -1:255 32 0] 
r 0.425515374 _0_ RTR  --- 9 message 32 [0 ffffffff a 800] ------- [10:255 -1:255 32 0] 
r 0.425515423 _6_ RTR  --- 9 message 32 [0 ffffffff a 800] ------- [10:255 -1:255 32 0] 
r 0.425515428 _30_ RTR  --- 9 message 32 [0 ffffffff a 800] ------- [10:255 -1:255 32 0] 
r 0.425515438 _32_ RTR  --- 9 message 32 [0 ffffffff a 800] ------- [10:255 -1:255 32 0] 
s 0.429968552 _17_ RTR  --- 10 message 32 [0 0 0 0] ------- [17:255 -1:255 32 0] 
r 0.434018780 _0_ RTR  --- 10 message 32 [0 ffffffff 11 800] ------- [17:255 -1:255 32 0] 
r 0.434018948 _3_ RTR  --- 10 message 32 [0 ffffffff 11 800] ------- [17:255 -1:255 32 0] 
r 0.434019027 _36_ RTR  --- 10 message 32 [0 ffffffff 11 800] ------- [17:255 -1:255 32 0] 
r 0.434019035 _30_ RTR  --- 10 message 32 [0 ffffffff 11 800] ------- [17:255 -1:255 32 0] 
r 0.434019059 _14_ RTR  --- 10 message 32 [0 ffffffff 11 800] ------- [17:255 -1:255 32 0] 
r 0.434019062 _11_ RTR  --- 10 message 32 [0 ffffffff 11 800] ------- [17:255 -1:255 32 0] 
r 0.434019115 _22_ RTR  --- 10 message 32 [0 ffffffff 11 800] ------- [17:255 -1:255 32 0] 
r 0.434019187 _26_ RTR  --- 10 message 32 [0 ffffffff 11 800] ------- [17:255 -1:255 32 0] 
r 0.434019192 _13_ RTR  --- 10 message 32 [0 ffffffff 11 800] ------- [17:255 -1:255 32 0] 
r 0.434019216 _10_ RTR  --- 10 message 32 [0 ffffffff 11 800] ------- [17:255 -1:255 32 0] 
r 0.434019218 _6_ RTR  --- 10 message 32 [0 ffffffff 11 800] ------- [17:255 -1:255 32 0] 
r 0.434019230 _32_ RTR  --- 10 message 32 [0 ffffffff 11 800] ------- [17:255 -1:255 32 0] 
r 0.434019238 _9_ RTR  --- 10 message 32 [0 ffffffff 11 800] ------- [17:255 -1:255 32 0] 
r 0.434019249 _27_ RTR  --- 10 message 32 [0 ffffffff 11 800] ------- [17:255 -1:255 32 0] 
r 0.434019261 _34_ RTR  --- 10 message 32 [0 ffffffff 11 800] ------- [17:255 -1:255 32 0] 
r 0.434019278 _23_ RTR  --- 10 message 32 [0 ffffffff 11 800] ------- [17:255 -1:255 32 0] 
r 0.434019282 _12_ RTR  --- 10 message 32 [0 ffffffff 11 800] ------- [17:255 -1:255 32 0] 
r 0.434019346 _7_ RTR  --- 10 message 32 [0 ffffffff 11 800] ------- [17:255 -1:255 32 0] 
r 0.434019365 _2_ RTR  --- 10 message 32 [0 ffffffff 11 800] ------- [17:255 -1:255 32 0] 
s 0.454435365 _34_ RTR  --- 11 message 32 [0 0 0 0] ------- [34:255 -1:255 32 0] 
r 0.458165482 _9_ RTR  --- 11 message 32 [0 ffffffff 22 800] ------- [34:255 -1:255 32 0] 
r 0.458165502 _38_ RTR  --- 11 message 32 [0 ffffffff 22 800] ------- [34:255 -1:255 32 0] 
r 0.458165522 _13_ RTR  --- 11 message 32 [0 ffffffff 22 800] ------- [34:255 -1:255 32 0] 
r 0.458165620 _39_ RTR  --- 11 message 32 [0 ffffffff 22 800] ------- [34:255 -1:255 32 0] 
r 0.458165629 _33_ RTR  --- 11 message 32 [0 ffffffff 22 800] ------- [34:255 -1:255 32 0] 
r 0.458165642 _7_ RTR  --- 11 message 32 [0 ffffffff 22 800] ------- [34:255 -1:255 32 0] 
r 0.458165652 _1_ RTR  --- 11 message 32 [0 ffffffff 22 800] ------- [34:255 -1:255 32 0] 
r 0.458165729 _16_ RTR  --- 11 message 32 [0 ffffffff 22 800] ------- [34:255 -1:255 32 0] 
r 0.458165797 _29_ RTR  --- 11 message 32 [0 ffffffff 22 800] ------- [34:255 -1:255 32 0] 
r 0.458165831 _30_ RTR  --- 11 message 32 [0 ffffffff 22 800] ------- [34:255 -1:255 32 0] 
r 0.458165832 _12_ RTR  --- 11 message 32 [0 ffffffff 22 800] ------- [34:255 -1:255 32 0] 
r 0.458165852 _11_ RTR  --- 11 message 32 [0 ffffffff 22 800] ------- [34:255 -1:255 32 0] 
r 0.458165864 _8_ RTR  --- 11 message 32 [0 ffffffff 22 800] ------- [34:255 -1:255 32 0] 
r 0.458165917 _35_ RTR  --- 11 message 32 [0 ffffffff 22 800] ------- [34:255 -1:255 32 0] 
r 0.458165929 _36_ RTR  --- 11 message 32 [0 ffffffff 22 800] ------- [34:255 -1:255 32 0] 
r 0.458166074 _17_ RTR  --- 11 message 32 [0 ffffffff 22 800] ------- [34:255 -1:255 32 0] 
r 0.458166135 _2_ RTR  --- 11 message 32 [0 ffffffff 22 800] ------- [34:255 -1:255 32 0] 
s 0.474672686 _27_ RTR  --- 12 message 32 [0 0 0 0] ------- [27:255 -1:255 32 0] 
r 0.477123020 _20_ RTR  --- 12 message 32 [0 ffffffff 1b 800] ------- [27:255 -1:255 32 0] 
r 0.477123040 _24_ RTR  --- 12 message 32 [0 ffffffff 1b 800] ------- [27:255 -1:255 32 0] 
r 0.477123057 _21_ RTR  --- 12 message 32 [0 ffffffff 1b 800] ------- [27:255 -1:255 32 0] 
r 0.477123096 _15_ RTR  --- 12 message 32 [0 ffffffff 1b 800] ------- [27:255 -1:255 32 0] 
r 0.477123097 _2_ RTR  --- 12 message 32 [0 ffffffff 1b 800] ------- [27:255 -1:255 32 0] 
r 0.477123118 _18_ RTR  --- 12 message 32 [0 ffffffff 1b 800] ------- [27:255 -1:255 32 0] 
r 0.477123146 _3_ RTR  --- 12 message 32 [0 ffffffff 1b 800] ------- [27:255 -1:255 32 0] 
r 0.477123166 _4_ RTR  --- 12 message 32 [0 ffffffff 1b 800] ------- [27:255 -1:255 32 0] 
r 0.477123199 _11_ RTR  --- 12 message 32 [0 ffffffff 1b 800] ------- [27:255 -1:255 32 0] 
r 0.477123228 _5_ RTR  --- 12 message 32 [0 ffffffff 1b 800] ------- [27:255 -1:255 32 0] 
r 0.477123228 _14_ RTR  --- 12 message 32 [0 ffffffff 1b 800] ------- [27:255 -1:255 32 0] 
r 0.477123242 _37_ RTR  --- 12 message 32 [0 ffffffff 1b 800] ------- [27:255 -1:255 32 0] 
r 0.477123295 _0_ RTR  --- 12 message 32 [0 ffffffff 1b 800] ------- [27:255 -1:255 32 0] 
r 0.477123321 _12_ RTR  --- 12 message 32 [0 ffffffff 1b 800] ------- [27:255 -1:255 32 0] 
r 0.477123336 _28_ RTR  --- 12 message 32 [0 ffffffff 1b 800] ------- [27:255 -1:255 32 0] 
r 0.477123383 _17_ RTR  --- 12 message 32 [0 ffffffff 1b 800] ------- [27:255 -1:255 32 0] 
r 0.477123406 _23_ RTR  --- 12 message 32 [0 ffffffff 1b 800] ------- [27:255 -1:255 32 0] 
r 0.477123411 _25_ RTR  --- 12 message 32 [0 ffffffff 1b 800] ------- [27:255 -1:255 32 0] 
r 0.477123421 _26_ RTR  --- 12 message 32 [0 ffffffff 1b 800] ------- [27:255 -1:255 32 0] 
r 0.477123483 _8_ RTR  --- 12 message 32 [0 ffffffff 1b 800] ------- [27:255 -1:255 32 0] 
s 0.671962519 _14_ RTR  --- 13 message 32 [0 0 0 0] ------- [14:255 -1:255 32 0] 
r 0.676652664 _3_ RTR  --- 13 message 32 [0 ffffffff e 800] ------- [14:255 -1:255 32 0] 
r 0.676652724 _26_ RTR  --- 13 message 32 [0 ffffffff e 800] ------- [14:255 -1:255 32 0] 
r 0.676652763 _23_ RTR  --- 13 message 32 [0 ffffffff e 800] ------- [14:255 -1:255 32 0] 
r 0.676652802 _0_ RTR  --- 13 message 32 [0 ffffffff e 800] ------- [14:255 -1:255 32 0] 
r 0.676652849 _6_ RTR  --- 13 message 32 [0 ffffffff e 800] ------- [14:255 -1:255 32 0] 
r 0.676652851 _32_ RTR  --- 13 message 32 [0 ffffffff e 800] ------- [14:255 -1:255 32 0] 
r 0.676652995 _24_ RTR  --- 13 message 32 [0 ffffffff e 800] ------- [14:255 -1:255 32 0] 
r 0.676653027 _17_ RTR  --- 13 message 32 [0 ffffffff e 800] ------- [14:255 -1:255 32 0] 
r 0.676653040 _15_ RTR  --- 13 message 32 [0 ffffffff e 800] ------- [14:255 -1:255 32 0] 
r 0.676653061 _27_ RTR  --- 13 message 32 [0 ffffffff e 800] ------- [14:255 -1:255 32 0] 
r 0.676653115 _18_ RTR  --- 13 message 32 [0 ffffffff e 800] ------- [14:255 -1:255 32 0] 
r 0.676653116 _4_ RTR  --- 13 message 32 [0 ffffffff e 800] ------- [14:255 -1:255 32 0] 
r 0.676653120 _25_ RTR  --- 13 message 32 [0 ffffffff e 800] ------- [14:255 -1:255 32 0] 
r 0.676653220 _28_ RTR  --- 13 message 32 [0 ffffffff e 800] ------- [14:255 -1:255 32 0] 
r 0.676653280 _20_ RTR  --- 13 message 32 [0 ffffffff e 800] ------- [14:255 -1:255 32 0] 
r 0.676653286 _11_ RTR  --- 13 message 32 [0 ffffffff e 800] ------- [14:255 -1:255 32 0] 
r 0.676653328 _22_ RTR  --- 13 message 32 [0 ffffffff e 800] ------- [14:255 -1:255 32 0] 
s 0.684226311 _37_ RTR  --- 14 message 32 [0 0 0 0] ------- [37:255 -1:255 32 0] 
r 0.688276427 _5_ RTR  --- 14 message 32 [0 ffffffff 25 800] ------- [37:255 -1:255 32 0] 
r 0.688276523 _2_ RTR  --- 14 message 32 [0 ffffffff 25 800] ------- [37:255 -1:255 32 0] 
r 0.688276753 _12_ RTR  --- 14 message 32 [0 ffffffff 25 800] ------- [37:255 -1:255 32 0] 
r 0.688276773 _8_ RTR  --- 14 message 32 [0 ffffffff 25 800] ------- [37:255 -1:255 32 0] 
r 0.688276776 _35_ RTR  --- 14 message 32 [0 ffffffff 25 800] ------- [37:255 -1:255 32 0] 
r 0.688276790 _19_ RTR  --- 14 message 32 [0 ffffffff 25 800] ------- [37:255 -1:255 32 0] 
r 0.688276791 _31_ RTR  --- 14 message 32 [0 ffffffff 25 800] ------- [37:255 -1:255 32 0] 
r 0.688276843 _21_ RTR  --- 14 message 32 [0 ffffffff 25 800] ------- [37:255 -1:255 32 0] 
r 0.688276866 _11_ RTR  --- 14 message 32 [0 ffffffff 25 800] ------- [37:255 -1:255 32 0] 
r 0.688276867 _27_ RTR  --- 14 message 32 [0 ffffffff 25 800] ------- [37:255 -1:255 32 0] 
r 0.688276890 _29_ RTR  --- 14 message 32 [0 ffffffff 25 800] ------- [37:255 -1:255 32 0] 
r 0.688276937 _20_ RTR  --- 14 message 32 [0 ffffffff 25 800] ------- [37:255 -1:255 32 0] 
r 0.688276964 _7_ RTR  --- 14 message 32 [0 ffffffff 25 800] ------- [37:255 -1:255 32 0] 
r 0.688277072 _13_ RTR  --- 14 message 32 [0 ffffffff 25 800] ------- [37:255 -1:255 32 0] 
r 0.688277101 _9_ RTR  --- 14 message 32 [0 ffffffff 25 800] ------- [37:255 -1:255 32 0] 
s 0.820392893 _20_ RTR  --- 15 message 32 [0 0 0 0] ------- [20:255 -1:255 32 0] 
r 0.824123014 _21_ RTR  --- 15 message 32 [0 ffffffff 14 800] ------- [20:255 -1:255 32 0] 
r 0.824123194 _18_ RTR  --- 15 message 32 [0 ffffffff 14 800] ------- [20:255 -1:255 32 0] 
r 0.824123226 _27_ RTR  --- 15 message 32 [0 ffffffff 14 800] ------- [20:255 -1:255 32 0] 
r 0.824123231 _24_ RTR  --- 15 message 32 [0 ffffffff 14 800] ------- [20:255 -1:255 32 0] 
r 0.824123237 _15_ RTR  --- 15 message 32 [0 ffffffff 14 800] ------- [20:255 -1:255 32 0] 
r 0.824123246 _4_ RTR  --- 15 message 32 [0 ffffffff 14 800] ------- [20:255 -1:255 32 0] 
r 0.824123382 _28_ RTR  --- 15 message 32 [0 ffffffff 14 800] ------- [20:255 -1:255 32 0] 
r 0.824123443 _5_ RTR  --- 15 message 32 [0 ffffffff 14 800] ------- [20:255 -1:255 32 0] 
r 0.824123482 _2_ RTR  --- 15 message 32 [0 ffffffff 14 800] ------- [20:255 -1:255 32 0] 
r 0.824123519 _37_ RTR  --- 15 message 32 [0 ffffffff 14 800] ------- [20:255 -1:255 32 0] 
r 0.824123547 _25_ RTR  --- 15 message 32 [0 ffffffff 14 800] ------- [20:255 -1:255 32 0] 
r 0.824123620 _3_ RTR  --- 15 message 32 [0 ffffffff 14 800] ------- [20:255 -1:255 32 0] 
r 0.824123653 _14_ RTR  --- 15 message 32 [0 ffffffff 14 800] ------- [20:255 -1:255 32 0] 
r 0.824123707 _19_ RTR  --- 15 message 32 [0 ffffffff 14 800] ------- [20:255 -1:255 32 0] 
r 0.824123708 _11_ RTR  --- 15 message 32 [0 ffffffff 14 800] ------- [20:255 -1:255 32 0] 
s 0.850035071 _19_ RTR  --- 16 message 32 [0 0 0 0] ------- [19:255 -1:255 32 0] 
r 0.854725114 _31_ RTR  --- 16 message 32 [0 ffffffff 13 800] ------- [19:255 -1:255 32 0] 
r 0.854725484 _5_ RTR  --- 16 message 32 [0 ffffffff 13 800] ------- [19:255 -1:255 32 0] 
r 0.854725550 _37_ RTR  --- 16 message 32 [0 ffffffff 13 800] ------- [19:255 -1:255 32 0] 
r 0.854725757 _2_ RTR  --- 16 message 32 [0 ffffffff 13 800] ------- [19:255 -1:255 32 0] 
r 0.854725763 _21_ RTR  --- 16 message 32 [0 ffffffff 13 800] ------- [19:255 -1:255 32 0] 
r 0.854725885 _20_ RTR  --- 16 message 32 [0 ffffffff 13 800] ------- [19:255 -1:255 32 0] 
r 0.854725898 _35_ RTR  --- 16 message 32 [0 ffffffff 13 800] ------- [19:255 -1:255 32 0] 
s 0.869383415 _18_ RTR  --- 17 message 32 [0 0 0 0] ------- [18:255 -1:255 32 0] 
r 0.872793470 _4_ RTR  --- 17 message 32 [0 ffffffff 12 800] ------- [18:255 -1:255 32 0] 
r 0.872793492 _15_ RTR  --- 17 message 32 [0 ffffffff 12 800] ------- [18:255 -1:255 32 0] 
r 0.872793542 _24_ RTR  --- 17 message 32 [0 ffffffff 12 800] ------- [18:255 -1:255 32 0] 
r 0.872793636 _28_ RTR  --- 17 message 32 [0 ffffffff 12 800] ------- [18:255 -1:255 32 0] 
r 0.872793717 _20_ RTR  --- 17 message 32 [0 ffffffff 12 800] ------- [18:255 -1:255 32 0] 
r 0.872793769 _25_ RTR  --- 17 message 32 [0 ffffffff 12 800] ------- [18:255 -1:255 32 0] 
r 0.872793838 _21_ RTR  --- 17 message 32 [0 ffffffff 12 800] ------- [18:255 -1:255 32 0] 
r 0.872793847 _27_ RTR  --- 17 message 32 [0 ffffffff 12 800] ------- [18:255 -1:255 32 0] 
r 0.872794012 _14_ RTR  --- 17 message 32 [0 ffffffff 12 800] ------- [18:255 -1:255 32 0] 
r 0.872794036 _3_ RTR  --- 17 message 32 [0 ffffffff 12 800] ------- [18:255 -1:255 32 0] 
r 0.872794036 _23_ RTR  --- 17 message 32 [0 ffffffff 12 800] ------- [18:255 -1:255 32 0] 
r 0.872794116 _26_ RTR  --- 17 message 32 [0 ffffffff 12 800] ------- [18:255 -1:255 32 0] 
r 0.872794226 _2_ RTR  --- 17 message 32 [0 ffffffff 12 800] ------- [18:255 -1:255 32 0] 
r 0.872794232 _0_ RTR  --- 17 message 32 [0 ffffffff 12 800] ------- [18:255 -1:255 32 0] 
s 0.875205073 _13_ RTR  --- 18 message 32 [0 0 0 0] ------- [13:255 -1:255 32 0] 
r 0.877975127 _9_ RTR  --- 18 message 32 [0 ffffffff d 800] ------- [13:255 -1:255 32 0] 
r 0.877975230 _34_ RTR  --- 18 message 32 [0 ffffffff d 800] ------- [13:255 -1:255 32 0] 
r 0.877975257 _7_ RTR  --- 18 message 32 [0 ffffffff d 800] ------- [13:255 -1:255 32 0] 
r 0.877975327 _38_ RTR  --- 18 message 32 [0 ffffffff d 800] ------- [13:255 -1:255 32 0] 
r 0.877975391 _12_ RTR  --- 18 message 32 [0 ffffffff d 800] ------- [13:255 -1:255 32 0] 
r 0.877975408 _11_ RTR  --- 18 message 32 [0 ffffffff d 800] ------- [13:255 -1:255 32 0] 
r 0.877975411 _1_ RTR  --- 18 message 32 [0 ffffffff d 800] ------- [13:255 -1:255 32 0] 
r 0.877975425 _29_ RTR  --- 18 message 32 [0 ffffffff d 800] ------- [13:255 -1:255 32 0] 
r 0.877975446 _39_ RTR  --- 18 message 32 [0 ffffffff d 800] ------- [13:255 -1:255 32 0] 
r 0.877975460 _8_ RTR  --- 18 message 32 [0 ffffffff d 800] ------- [13:255 -1:255 32 0] 
r 0.877975492 _33_ RTR  --- 18 message 32 [0 ffffffff d 800] ------- [13:255 -1:255 32 0] 
r 0.877975524 _35_ RTR  --- 18 message 32 [0 ffffffff d 800] ------- [13:255 -1:255 32 0] 
r 0.877975591 _30_ RTR  --- 18 message 32 [0 ffffffff d 800] ------- [13:255 -1:255 32 0] 
r 0.877975592 _16_ RTR  --- 18 message 32 [0 ffffffff d 800] ------- [13:255 -1:255 32 0] 
r 0.877975684 _36_ RTR  --- 18 message 32 [0 ffffffff d 800] ------- [13:255 -1:255 32 0] 
r 0.877975687 _2_ RTR  --- 18 message 32 [0 ffffffff d 800] ------- [13:255 -1:255 32 0] 
r 0.877975713 _17_ RTR  --- 18 message 32 [0 ffffffff d 800] ------- [13:255 -1:255 32 0] 
r 0.877975834 _37_ RTR  --- 18 message 32 [0 ffffffff d 800] ------- [13:255 -1:255 32 0] 
r 0.877975895 _0_ RTR  --- 18 message 32 [0 ffffffff d 800] ------- [13:255 -1:255 32 0] 
s 0.884601285 _12_ RTR  --- 19 message 32 [0 0 0 0] ------- [12:255 -1:255 32 0] 
r 0.888971478 _8_ RTR  --- 19 message 32 [0 ffffffff c 800] ------- [12:255 -1:255 32 0] 
r 0.888971512 _11_ RTR  --- 19 message 32 [0 ffffffff c 800] ------- [12:255 -1:255 32 0] 
r 0.888971527 _7_ RTR  --- 19 message 32 [0 ffffffff c 800] ------- [12:255 -1:255 32 0] 
r 0.888971549 _35_ RTR  --- 19 message 32 [0 ffffffff c 800] ------- [12:255 -1:255 32 0] 
r 0.888971555 _29_ RTR  --- 19 message 32 [0 ffffffff c 800] ------- [12:255 -1:255 32 0] 
r 0.888971596 _2_ RTR  --- 19 message 32 [0 ffffffff c 800] ------- [12:255 -1:255 32 0] 
r 0.888971603 _13_ RTR  --- 19 message 32 [0 ffffffff c 800] ------- [12:255 -1:255 32 0] 
r 0.888971635 _9_ RTR  --- 19 message 32 [0 ffffffff c 800] ------- [12:255 -1:255 32 0] 
r 0.888971728 _37_ RTR  --- 19 message 32 [0 ffffffff c 800] ------- [12:255 -1:255 32 0] 
r 0.888971752 _34_ RTR  --- 19 message 32 [0 ffffffff c 800] ------- [12:255 -1:255 32 0] 
r 0.888971785 _1_ RTR  --- 19 message 32 [0 ffffffff c 800] ------- [12:255 -1:255 32 0] 
r 0.888971804 _38_ RTR  --- 19 message 32 [0 ffffffff c 800] ------- [12:255 -1:255 32 0] 
r 0.888971835 _5_ RTR  --- 19 message 32 [0 ffffffff c 800] ------- [12:255 -1:255 32 0] 
r 0.888971899 _39_ RTR  --- 19 message 32 [0 ffffffff c 800] ------- [12:255 -1:255 32 0] 
r 0.888971919 _27_ RTR  --- 19 message 32 [0 ffffffff c 800] ------- [12:255 -1:255 32 0] 
r 0.888971999 _33_ RTR  --- 19 message 32 [0 ffffffff c 800] ------- [12:255 -1:255 32 0] 
r 0.888972015 _17_ RTR  --- 19 message 32 [0 ffffffff c 800] ------- [12:255 -1:255 32 0] 
r 0.888972076 _30_ RTR  --- 19 message 32 [0 ffffffff c 800] ------- [12:255 -1:255 32 0] 
r 0.888972094 _16_ RTR  --- 19 message 32 [0 ffffffff c 800] ------- [12:255 -1:255 32 0] 
s 0.902722248 _9_ RTR  --- 20 message 32 [0 0 0 0] ------- [9:255 -1:255 32 0] 
r 0.906452303 _13_ RTR  --- 20 message 32 [0 ffffffff 9 800] ------- [9:255 -1:255 32 0] 
r 0.906452365 _34_ RTR  --- 20 message 32 [0 ffffffff 9 800] ------- [9:255 -1:255 32 0] 
r 0.906452424 _7_ RTR  --- 20 message 32 [0 ffffffff 9 800] ------- [9:255 -1:255 32 0] 
r 0.906452449 _38_ RTR  --- 20 message 32 [0 ffffffff 9 800] ------- [9:255 -1:255 32 0] 
r 0.906452537 _1_ RTR  --- 20 message 32 [0 ffffffff 9 800] ------- [9:255 -1:255 32 0] 
r 0.906452567 _39_ RTR  --- 20 message 32 [0 ffffffff 9 800] ------- [9:255 -1:255 32 0] 