s 0.036328457 _11_ RTR  --- 0 message 32 [0 0 0 0] ------- [11:255 -1:255 32 0] 
r 0.038778800 _12_ RTR  --- 0 message 32 [0 ffffffff b 800] ------- [11:255 -1:255 32 0] 
r 0.038778961 _13_ RTR  --- 0 message 32 [0 ffffffff b 800] ------- [11:255 -1:255 32 0] 
r 0.038778993 _2_ RTR  --- 0 message 32 [0 ffffffff b 800] ------- [11:255 -1:255 32 0] 
r 0.038779033 _7_ RTR  --- 0 message 32 [0 ffffffff b 800] ------- [11:255 -1:255 32 0] 
r 0.038779039 _9_ RTR  --- 0 message 32 [0 ffffffff b 800] ------- [11:255 -1:255 32 0] 
r 0.038779087 _8_ RTR  --- 0 message 32 [0 ffffffff b 800] ------- [11:255 -1:255 32 0] 
r 0.038779173 _29_ RTR  --- 0 message 32 [0 ffffffff b 800] ------- [11:255 -1:255 32 0] 
r 0.038779190 _34_ RTR  --- 0 message 32 [0 ffffffff b 800] ------- [11:255 -1:255 32 0] 
r 0.038779194 _35_ RTR  --- 0 message 32 [0 ffffffff b 800] ------- [11:255 -1:255 32 0] 
r 0.038779222 _17_ RTR  --- 0 message 32 [0 ffffffff b 800] ------- [11:255 -1:255 32 0] 
r 0.038779226 _27_ RTR  --- 0 message 32 [0 ffffffff b 800] ------- [11:255 -1:255 32 0] 
s 0.073282045 _4_ RTR  --- 1 message 32 [0 0 0 0] ------- [4:255 -1:255 32 0] 
r 0.076692124 _18_ RTR  --- 1 message 32 [0 ffffffff 4 800] ------- [4:255 -1:255 32 0] 
r 0.076692174 _15_ RTR  --- 1 message 32 [0 ffffffff 4 800] ------- [4:255 -1:255 32 0] 
r 0.076692267 _24_ RTR  --- 1 message 32 [0 ffffffff 4 800] ------- [4:255 -1:255 32 0] 
r 0.076692302 _28_ RTR  --- 1 message 32 [0 ffffffff 4 800] ------- [4:255 -1:255 32 0] 
r 0.076692496 _25_ RTR  --- 1 message 32 [0 ffffffff 4 800] ------- [4:255 -1:255 32 0] 
r 0.076692576 _20_ RTR  --- 1 message 32 [0 ffffffff 4 800] ------- [4:255 -1:255 32 0] 
r 0.076692758 _21_ RTR  --- 1 message 32 [0 ffffffff 4 800] ------- [4:255 -1:255 32 0] 
r 0.076692761 _27_ RTR  --- 1 message 32 [0 ffffffff 4 800] ------- [4:255 -1:255 32 0] 
s 0.088584275 _31_ RTR  --- 2 message 32 [0 0 0 0] ------- [31:255 -1:255 32 0] 
r 0.092634340 _19_ RTR  --- 2 message 32 [0 ffffffff 1f 800] ------- [31:255 -1:255 32 0] 
r 0.092634908 _5_ RTR  --- 2 message 32 [0 ffffffff 1f 800] ------- [31:255 -1:255 32 0] 
r 0.092634995 _37_ RTR  --- 2 message 32 [0 ffffffff 1f 800] ------- [31:255 -1:255 32 0] 
s 0.126846076 _36_ RTR  --- 3 message 32 [0 0 0 0] ------- [36:255 -1:255 32 0] 
s 0.129642904 _28_ RTR  --- 4 message 32 [0 0 0 0] ------- [28:255 -1:255 32 0] 
r 0.130896222 _30_ RTR  --- 3 message 32 [0 ffffffff 24 800] ------- [36:255 -1:255 32 0] 
r 0.130896791 _17_ RTR  --- 3 message 32 [0 ffffffff 24 800] ------- [36:255 -1:255 32 0] 
r 0.133373161 _4_ RTR  --- 4 message 32 [0 ffffffff 1c 800] ------- [28:255 -1:255 32 0] 
r 0.133373228 _25_ RTR  --- 4 message 32 [0 ffffffff 1c 800] ------- [28:255 -1:255 32 0] 
r 0.133373234 _18_ RTR  --- 4 message 32 [0 ffffffff 1c 800] ------- [28:255 -1:255 32 0] 
r 0.133373278 _15_ RTR  --- 4 message 32 [0 ffffffff 1c 800] ------- [28:255 -1:255 32 0] 
r 0.133373370 _24_ RTR  --- 4 message 32 [0 ffffffff 1c 800] ------- [28:255 -1:255 32 0] 
r 0.133373638 _20_ RTR  --- 4 message 32 [0 ffffffff 1c 800] ------- [28:255 -1:255 32 0] 
s 0.247164037 _15_ RTR  --- 5 message 32 [0 0 0 0] ------- [15:255 -1:255 32 0] 
r 0.250574131 _24_ RTR  --- 5 message 32 [0 ffffffff f 800] ------- [15:255 -1:255 32 0] 
r 0.250574148 _18_ RTR  --- 5 message 32 [0 ffffffff f 800] ------- [15:255 -1:255 32 0] 
r 0.250574165 _4_ RTR  --- 5 message 32 [0 ffffffff f 800] ------- [15:255 -1:255 32 0] 
r 0.250574410 _28_ RTR  --- 5 message 32 [0 ffffffff f 800] ------- [15:255 -1:255 32 0] 
r 0.250574534 _25_ RTR  --- 5 message 32 [0 ffffffff f 800] ------- [15:255 -1:255 32 0] 
r 0.250574553 _20_ RTR  --- 5 message 32 [0 ffffffff f 800] ------- [15:255 -1:255 32 0] 
r 0.250574648 _27_ RTR  --- 5 message 32 [0 ffffffff f 800] ------- [15:255 -1:255 32 0] 
r 0.250574735 _21_ RTR  --- 5 message 32 [0 ffffffff f 800] ------- [15:255 -1:255 32 0] 
r 0.250574817 _14_ RTR  --- 5 message 32 [0 ffffffff f 800] ------- [15:255 -1:255 32 0] 
r 0.250574859 _23_ RTR  --- 5 message 32 [0 ffffffff f 800] ------- [15:255 -1:255 32 0] 
r 0.250574860 _3_ RTR  --- 5 message 32 [0 ffffffff f 800] ------- [15:255 -1:255 32 0] 
s 0.321822596 _26_ RTR  --- 6 message 32 [0 0 0 0] ------- [26:255 -1:255 32 0] 
r 0.324272770 _23_ RTR  --- 6 message 32 [0 ffffffff 1a 800] ------- [26:255 -1:255 32 0] 
r 0.324272809 _32_ RTR  --- 6 message 32 [0 ffffffff 1a 800] ------- [26:255 -1:255 32 0] 
r 0.324272816 _6_ RTR  --- 6 message 32 [0 ffffffff 1a 800] ------- [26:255 -1:255 32 0] 
r 0.324272902 _14_ RTR  --- 6 message 32 [0 ffffffff 1a 800] ------- [26:255 -1:255 32 0] 
r 0.324273104 _3_ RTR  --- 6 message 32 [0 ffffffff 1a 800] ------- [26:255 -1:255 32 0] 
r 0.324273212 _0_ RTR  --- 6 message 32 [0 ffffffff 1a 800] ------- [26:255 -1:255 32 0] 
s 0.349191800 _3_ RTR  --- 7 message 32 [0 0 0 0] ------- [3:255 -1:255 32 0] 
r 0.352922015 _14_ RTR  --- 7 message 32 [0 ffffffff 3 800] ------- [3:255 -1:255 32 0] 
r 0.352922097 _0_ RTR  --- 7 message 32 [0 ffffffff 3 800] ------- [3:255 -1:255 32 0] 
r 0.352922308 _26_ RTR  --- 7 message 32 [0 ffffffff 3 800] ------- [3:255 -1:255 32 0] 
r 0.352922377 _23_ RTR  --- 7 message 32 [0 ffffffff 3 800] ------- [3:255 -1:255 32 0] 
r 0.352922395 _17_ RTR  --- 7 message 32 [0 ffffffff 3 800] ------- [3:255 -1:255 32 0] 
r 0.352922472 _6_ RTR  --- 7 message 32 [0 ffffffff 3 800] ------- [3:255 -1:255 32 0] 
r 0.352922475 _32_ RTR  --- 7 message 32 [0 ffffffff 3 800] ------- [3:255 -1:255 32 0] 
r 0.352922493 _27_ RTR  --- 7 message 32 [0 ffffffff 3 800] ------- [3:255 -1:255 32 0] 
r 0.352922542 _24_ RTR  --- 7 message 32 [0 ffffffff 3 800] ------- [3:255 -1:255 32 0] 
r 0.352922624 _15_ RTR  --- 7 message 32 [0 ffffffff 3 800] ------- [3:255 -1:255 32 0] 
s 0.356017125 _29_ RTR  --- 8 message 32 [0 0 0 0] ------- [29:255 -1:255 32 0] 
r 0.359427299 _8_ RTR  --- 8 message 32 [0 ffffffff 1d 800] ------- [29:255 -1:255 32 0] 
r 0.359427319 _35_ RTR  --- 8 message 32 [0 ffffffff 1d 800] ------- [29:255 -1:255 32 0] 
r 0.359427378 _7_ RTR  --- 8 message 32 [0 ffffffff 1d 800] ------- [29:255 -1:255 32 0] 
r 0.359427530 _12_ RTR  --- 8 message 32 [0 ffffffff 1d 800] ------- [29:255 -1:255 32 0] 
r 0.359427581 _1_ RTR  --- 8 message 32 [0 ffffffff 1d 800] ------- [29:255 -1:255 32 0] 
r 0.359427637 _9_ RTR  --- 8 message 32 [0 ffffffff 1d 800] ------- [29:255 -1:255 32 0] 
r 0.359427650 _13_ RTR  --- 8 message 32 [0 ffffffff 1d 800] ------- [29:255 -1:255 32 0] 
r 0.359427733 _38_ RTR  --- 8 message 32 [0 ffffffff 1d 800] ------- [29:255 -1:255 32 0] 
r 0.359427772 _34_ RTR  --- 8 message 32 [0 ffffffff 1d 800] ------- [29:255 -1:255 32 0] 
r 0.359427808 _39_ RTR  --- 8 message 32 [0 ffffffff 1d 800] ------- [29:255 -1:255 32 0] 
r 0.359427841 _11_ RTR  --- 8 message 32 [0 ffffffff 1d 800] ------- [29:255 -1:255 32 0] 
r 0.359427918 _2_ RTR  --- 8 message 32 [0 ffffffff 1d 800] ------- [29:255 -1:255 32 0] 
s 0.421784672 _10_ RTR  --- 9 message 32 [0 0 0 0] ------- [10:255 -1:255 32 0] 
r 0.425514823 _22_ RTR  --- 9 message 32 [0 ffffffff a 800] ------- [10:255 -1:255 32 0] 
s 0.429968552 _17_ RTR  --- 10 message 32 [0 0 0 0] ------- [17:255 -1:255 32 0] 
r 0.434018891 _0_ RTR  --- 10 message 32 [0 ffffffff 11 800] ------- [17:255 -1:255 32 0] 
r 0.434019147 _3_ RTR  --- 10 message 32 [0 ffffffff 11 800] ------- [17:255 -1:255 32 0] 
r 0.434019267 _36_ RTR  --- 10 message 32 [0 ffffffff 11 800] ------- [17:255 -1:255 32 0] 
r 0.434019279 _30_ RTR  --- 10 message 32 [0 ffffffff 11 800] ------- [17:255 -1:255 32 0] 
r 0.434019312 _14_ RTR  --- 10 message 32 [0 ffffffff 11 800] ------- [17:255 -1:255 32 0] 
r 0.434019317 _11_ RTR  --- 10 message 32 [0 ffffffff 11 800] ------- [17:255 -1:255 32 0] 
s 0.454435365 _34_ RTR  --- 11 message 32 [0 0 0 0] ------- [34:255 -1:255 32 0] 
r 0.458165542 _9_ RTR  --- 11 message 32 [0 ffffffff 22 800] ------- [34:255 -1:255 32 0] 
r 0.458165570 _38_ RTR  --- 11 message 32 [0 ffffffff 22 800] ------- [34:255 -1:255 32 0] 
r 0.458165602 _13_ RTR  --- 11 message 32 [0 ffffffff 22 800] ------- [34:255 -1:255 32 0] 
r 0.458165744 _39_ RTR  --- 11 message 32 [0 ffffffff 22 800] ------- [34:255 -1:255 32 0] 
r 0.458165762 _33_ RTR  --- 11 message 32 [0 ffffffff 22 800] ------- [34:255 -1:255 32 0] 
r 0.458165778 _7_ RTR  --- 11 message 32 [0 ffffffff 22 800] ------- [34:255 -1:255 32 0] 
r 0.458165796 _1_ RTR  --- 11 message 32 [0 ffffffff 22 800] ------- [34:255 -1:255 32 0] 
r 0.458165910 _16_ RTR  --- 11 message 32 [0 ffffffff 22 800] ------- [34:255 -1:255 32 0] 
r 0.458166013 _29_ RTR  --- 11 message 32 [0 ffffffff 22 800] ------- [34:255 -1:255 32 0] 
r 0.458166065 _30_ RTR  --- 11 message 32 [0 ffffffff 22 800] ------- [34:255 -1:255 32 0] 
r 0.458166069 _12_ RTR  --- 11 message 32 [0 ffffffff 22 800] ------- [34:255 -1:255 32 0] 
r 0.458166098 _11_ RTR  --- 11 message 32 [0 ffffffff 22 800] ------- [34:255 -1:255 32 0] 
r 0.458166113 _8_ RTR  --- 11 message 32 [0 ffffffff 22 800] ------- [34:255 -1:255 32 0] 
r 0.458166191 _35_ RTR  --- 11 message 32 [0 ffffffff 22 800] ------- [34:255 -1:255 32 0] 
s 0.474672686 _27_ RTR  --- 12 message 32 [0 0 0 0] ------- [27:255 -1:255 32 0] 
r 0.477123186 _20_ RTR  --- 12 message 32 [0 ffffffff 1b 800] ------- [27:255 -1:255 32 0] 
r 0.477123216 _24_ RTR  --- 12 message 32 [0 ffffffff 1b 800] ------- [27:255 -1:255 32 0] 
r 0.477123243 _21_ RTR  --- 12 message 32 [0 ffffffff 1b 800] ------- [27:255 -1:255 32 0] 
r 0.477123297 _15_ RTR  --- 12 message 32 [0 ffffffff 1b 800] ------- [27:255 -1:255 32 0] 
r 0.477123303 _2_ RTR  --- 12 message 32 [0 ffffffff 1b 800] ------- [27:255 -1:255 32 0] 
r 0.477123332 _18_ RTR  --- 12 message 32 [0 ffffffff 1b 800] ------- [27:255 -1:255 32 0] 
r 0.477123380 _3_ RTR  --- 12 message 32 [0 ffffffff 1b 800] ------- [27:255 -1:255 32 0] 
r 0.477123402 _4_ RTR  --- 12 message 32 [0 ffffffff 1b 800] ------- [27:255 -1:255 32 0] 
r 0.477123456 _11_ RTR  --- 12 message 32 [0 ffffffff 1b 800] ------- [27:255 -1:255 32 0] 
r 0.477123500 _5_ RTR  --- 12 message 32 [0 ffffffff 1b 800] ------- [27:255 -1:255 32 0] 
r 0.477123502 _14_ RTR  --- 12 message 32 [0 ffffffff 1b 800] ------- [27:255 -1:255 32 0] 
r 0.477123517 _37_ RTR  --- 12 message 32 [0 ffffffff 1b 800] ------- [27:255 -1:255 32 0] 
s 0.671962519 _14_ RTR  --- 13 message 32 [0 0 0 0] ------- [14:255 -1:255 32 0] 
r 0.676652734 _3_ RTR  --- 13 message 32 [0 ffffffff e 800] ------- [14:255 -1:255 32 0] 
r 0.676652825 _26_ RTR  --- 13 message 32 [0 ffffffff e 800] ------- [14:255 -1:255 32 0] 
r 0.676652881 _23_ RTR  --- 13 message 32 [0 ffffffff e 800] ------- [14:255 -1:255 32 0] 
r 0.676652945 _0_ RTR  --- 13 message 32 [0 ffffffff e 800] ------- [14:255 -1:255 32 0] 
r 0.676653015 _32_ RTR  --- 13 message 32 [0 ffffffff e 800] ------- [14:255 -1:255 32 0] 
r 0.676653015 _6_ RTR  --- 13 message 32 [0 ffffffff e 800] ------- [14:255 -1:255 32 0] 
r 0.676653233 _24_ RTR  --- 13 message 32 [0 ffffffff e 800] ------- [14:255 -1:255 32 0] 
r 0.676653279 _17_ RTR  --- 13 message 32 [0 ffffffff e 800] ------- [14:255 -1:255 32 0] 
r 0.676653300 _15_ RTR  --- 13 message 32 [0 ffffffff e 800] ------- [14:255 -1:255 32 0] 
r 0.676653335 _27_ RTR  --- 13 message 32 [0 ffffffff e 800] ------- [14:255 -1:255 32 0] 
s 0.684226311 _37_ RTR  --- 14 message 32 [0 0 0 0] ------- [37:255 -1:255 32 0] 
r 0.688276481 _5_ RTR  --- 14 message 32 [0 ffffffff 25 800] ------- [37:255 -1:255 32 0] 
r 0.688276629 _2_ RTR  --- 14 message 32 [0 ffffffff 25 800] ------- [37:255 -1:255 32 0] 
r 0.688276975 _12_ RTR  --- 14 message 32 [0 ffffffff 25 800] ------- [37:255 -1:255 32 0] 
r 0.688277008 _8_ RTR  --- 14 message 32 [0 ffffffff 25 800] ------- [37:255 -1:255 32 0] 
r 0.688277011 _35_ RTR  --- 14 message 32 [0 ffffffff 25 800] ------- [37:255 -1:255 32 0] 
r 0.688277028 _19_ RTR  --- 14 message 32 [0 ffffffff 25 800] ------- [37:255 -1:255 32 0] 
r 0.688277031 _31_ RTR  --- 14 message 32 [0 ffffffff 25 800] ------- [37:255 -1:255 32 0] 
r 0.688277107 _21_ RTR  --- 14 message 32 [0 ffffffff 25 800] ------- [37:255 -1:255 32 0] 
r 0.688277141 _27_ RTR  --- 14 message 32 [0 ffffffff 25 800] ------- [37:255 -1:255 32 0] 
s 0.820392893 _20_ RTR  --- 15 message 32 [0 0 0 0] ------- [20:255 -1:255 32 0] 
r 0.824123075 _21_ RTR  --- 15 message 32 [0 ffffffff 14 800] ------- [20:255 -1:255 32 0] 
r 0.824123349 _18_ RTR  --- 15 message 32 [0 ffffffff 14 800] ------- [20:255 -1:255 32 0] 
r 0.824123393 _27_ RTR  --- 15 message 32 [0 ffffffff 14 800] ------- [20:255 -1:255 32 0] 
r 0.824123401 _24_ RTR  --- 15 message 32 [0 ffffffff 14 800] ------- [20:255 -1:255 32 0] 
r 0.824123409 _15_ RTR  --- 15 message 32 [0 ffffffff 14 800] ------- [20:255 -1:255 32 0] 
r 0.824123424 _4_ RTR  --- 15 message 32 [0 ffffffff 14 800] ------- [20:255 -1:255 32 0] 
r 0.824123627 _28_ RTR  --- 15 message 32 [0 ffffffff 14 800] ------- [20:255 -1:255 32 0] 
r 0.824123720 _5_ RTR  --- 15 message 32 [0 ffffffff 14 800] ------- [20:255 -1:255 32 0] 
s 0.850035071 _19_ RTR  --- 16 message 32 [0 0 0 0] ------- [19:255 -1:255 32 0] 
r 0.854725137 _31_ RTR  --- 16 message 32 [0 ffffffff 13 800] ------- [19:255 -1:255 32 0] 
r 0.854725687 _5_ RTR  --- 16 message 32 [0 ffffffff 13 800] ------- [19:255 -1:255 32 0] 
r 0.854725788 _37_ RTR  --- 16 message 32 [0 ffffffff 13 800] ------- [19:255 -1:255 32 0] 
s 0.869383415 _18_ RTR  --- 17 message 32 [0 0 0 0] ------- [18:255 -1:255 32 0] 
r 0.872793495 _4_ RTR  --- 17 message 32 [0 ffffffff 12 800] ------- [18:255 -1:255 32 0] 
r 0.872793526 _15_ RTR  --- 17 message 32 [0 ffffffff 12 800] ------- [18:255 -1:255 32 0] 
r 0.872793602 _24_ RTR  --- 17 message 32 [0 ffffffff 12 800] ------- [18:255 -1:255 32 0] 
r 0.872793745 _28_ RTR  --- 17 message 32 [0 ffffffff 12 800] ------- [18:255 -1:255 32 0] 
r 0.872793871 _20_ RTR  --- 17 message 32 [0 ffffffff 12 800] ------- [18:255 -1:255 32 0] 
r 0.872793942 _25_ RTR  --- 17 message 32 [0 ffffffff 12 800] ------- [18:255 -1:255 32 0] 
r 0.872794054 _21_ RTR  --- 17 message 32 [0 ffffffff 12 800] ------- [18:255 -1:255 32 0] 
r 0.872794061 _27_ RTR  --- 17 message 32 [0 ffffffff 12 800] ------- [18:255 -1:255 32 0] 
s 0.875205073 _13_ RTR  --- 18 message 32 [0 0 0 0] ------- [13:255 -1:255 32 0] 
r 0.877975153 _9_ RTR  --- 18 message 32 [0 ffffffff d 800] ------- [13:255 -1:255 32 0] 
r 0.877975310 _34_ RTR  --- 18 message 32 [0 ffffffff d 800] ------- [13:255 -1:255 32 0] 
r 0.877975346 _7_ RTR  --- 18 message 32 [0 ffffffff d 800] ------- [13:255 -1:255 32 0] 
r 0.877975455 _38_ RTR  --- 18 message 32 [0 ffffffff d 800] ------- [13:255 -1:255 32 0] 
r 0.877975551 _12_ RTR  --- 18 message 32 [0 ffffffff d 800] ------- [13:255 -1:255 32 0] 
r 0.877975577 _11_ RTR  --- 18 message 32 [0 ffffffff d 800] ------- [13:255 -1:255 32 0] 
r 0.877975580 _1_ RTR  --- 18 message 32 [0 ffffffff d 800] ------- [13:255 -1:255 32 0] 
r 0.877975598 _29_ RTR  --- 18 message 32 [0 ffffffff d 800] ------- [13:255 -1:255 32 0] 
r 0.877975631 _39_ RTR  --- 18 message 32 [0 ffffffff d 800] ------- [13:255 -1:255 32 0] 
r 0.877975652 _8_ RTR  --- 18 message 32 [0 ffffffff d 800] ------- [13:255 -1:255 32 0] 
r 0.877975704 _33_ RTR  --- 18 message 32 [0 ffffffff d 800] ------- [13:255 -1:255 32 0] 
r 0.877975747 _35_ RTR  --- 18 message 32 [0 ffffffff d 800] ------- [13:255 -1:255 32 0] 
r 0.877975851 _16_ RTR  --- 18 message 32 [0 ffffffff d 800] ------- [13:255 -1:255 32 0] 
r 0.877975853 _30_ RTR  --- 18 message 32 [0 ffffffff d 800] ------- [13:255 -1:255 32 0] 
s 0.884601285 _12_ RTR  --- 19 message 32 [0 0 0 0] ------- [12:255 -1:255 32 0] 
r 0.888971575 _8_ RTR  --- 19 message 32 [0 ffffffff c 800] ------- [12:255 -1:255 32 0] 
r 0.888971628 _11_ RTR  --- 19 message 32 [0 ffffffff c 800] ------- [12:255 -1:255 32 0] 
r 0.888971652 _7_ RTR  --- 19 message 32 [0 ffffffff c 800] ------- [12:255 -1:255 32 0] 
r 0.888971680 _35_ RTR  --- 19 message 32 [0 ffffffff c 800] ------- [12:255 -1:255 32 0] 
r 0.888971690 _29_ RTR  --- 19 message 32 [0 ffffffff c 800] ------- [12:255 -1:255 32 0] 
r 0.888971748 _2_ RTR  --- 19 message 32 [0 ffffffff c 800] ------- [12:255 -1:255 32 0] 
r 0.888971763 _13_ RTR  --- 19 message 32 [0 ffffffff c 800] ------- [12:255 -1:255 32 0] 
r 0.888971812 _9_ RTR  --- 19 message 32 [0 ffffffff c 800] ------- [12:255 -1:255 32 0] 
r 0.888971949 _37_ RTR  --- 19 message 32 [0 ffffffff c 800] ------- [12:255 -1:255 32 0] 
r 0.888971989 _34_ RTR  --- 19 message 32 [0 ffffffff c 800] ------- [12:255 -1:255 32 0] 
r 0.888972038 _1_ RTR  --- 19 message 32 [0 ffffffff c 800] ------- [12:255 -1:255 32 0] 
r 0.888972065 _38_ RTR  --- 19 message 32 [0 ffffffff c 800] ------- [12:255 -1:255 32 0] 
r 0.888972108 _5_ RTR  --- 19 message 32 [0 ffffffff c 800] ------- [12:255 -1:255 32 0] 
s 0.902722248 _9_ RTR  --- 20 message 32 [0 0 0 0] ------- [9:255 -1:255 32 0] 
r 0.906452329 _13_ RTR  --- 20 message 32 [0 ffffffff 9 800] ------- [9:255 -1:255 32 0] 
r 0.906452425 _34_ RTR  --- 20 message 32 [0 ffffffff 9 800] ------- [9:255 -1:255 32 0] 
r 0.906452510 _7_ RTR  --- 20 message 32 [0 ffffffff 9 800] ------- [9:255 -1:255 32 0] 
r 0.906452550 _38_ RTR  --- 20 message 32 [0 ffffffff 9 800] ------- [9:255 -1:255 32 0] 
r 0.906452682 _1_ RTR  --- 20 message 32 [0 ffffffff 9 800] ------- [9:255 -1:255 32 0] 
r 0.906452726 _39_ RTR  --- 20 message 32 [0 ffffffff 9 800] ------- [9:255 -1:255 32 0] 
r 0.906452760 _29_ RTR  --- 20 message 32 [0 ffffffff 9 800] ------- [9:255 -1:255 32 0] 
r 0.906452775 _12_ RTR  --- 20 message 32 [0 ffffffff 9 800] ------- [9:255 -1:255 32 0] 
r 0.906452809 _33_ RTR  --- 20 message 32 [0 ffffffff 9 800] ------- [9:255 -1:255 32 0] 
r 0.906452830 _11_ RTR  --- 20 message 32 [0 ffffffff 9 800] ------- [9:255 -1:255 32 0] 
r 0.906452837 _8_ RTR  --- 20 message 32 [0 ffffffff 9 800] ------- [9:255 -1:255 32 0] 
r 0.906452924 _35_ RTR  --- 20 message 32 [0 ffffffff 9 800] ------- [9:255 -1:255 32 0] 
r 0.906452956 _16_ RTR  --- 20 message 32 [0 ffffffff 9 800] ------- [9:255 -1:255 32 0] 
r 0.906453041 _30_ RTR  --- 20 message 32 [0 ffffffff 9 800] ------- [9:255 -1:255 32 0] 
s 0.974422618 _22_ RTR  --- 21 message 32 [0 0 0 0] ------- [22:255 -1:255 32 0] 
r 0.976872769 _10_ RTR  --- 21 message 32 [0 ffffffff 16 800] ------- [22:255 -1:255 32 0] 
M 1.00000 0 (216.00, 453.00, 0.00), (672.00, 424.00), 4.00
M 1.00000 1 (723.00, 577.00, 0.00), (597.00, 665.00), 1.00
M 1.00000 2 (543.00, 264.00, 0.00), (134.00, 277.00), 2.00
M 1.00000 3 (212.00, 364.00, 0.00), (117.00, 159.00), 2.00
M 1.00000 4 (201.00, 80.00, 0.00), (464.00, 232.00), 1.00
M 1.00000 5 (596.00, 148.00, 0.00), (156.00, 132.00), 2.00
M 1.00000 6 (14.00, 401.00, 0.00), (743.00, 280.00), 4.00
M 1.00000 7 (643.00, 491.00, 0.00), (327.00, 13.00), 3.00
M 1.00000 8 (676.00, 396.00, 0.00), (347.00, 35.00), 3.00
M 1.00000 9 (595.00, 553.00, 0.00), (136.00, 371.00), 2.00
M 1.00000 10 (73.00, 735.00, 0.00), (240.00, 476.00), 3.00
M 1.00000 11 (488.00, 415.00, 0.00), (211.00, 612.00), 5.00
M 1.00000 12 (589.00, 395.00, 0.00), (75.00, 119.00), 1.00
M 1.00000 13 (576.00, 538.00, 0.00), (532.00, 485.00), 3.00
M 1.00000 14 (151.00, 343.00, 0.00), (428.00, 281.00), 2.00
M 1.00000 15 (212.00, 117.00, 0.00), (732.00, 393.00), 1.00
M 1.00000 16 (674.00, 750.00, 0.00), (280.00, 525.00), 4.00
M 1.00000 17 (287.00, 526.00, 0.00), (725.00, 736.00), 4.00
M 1.00000 18 (224.00, 86.00, 0.00), (253.00, 181.00), 2.00
M 1.00000 19 (721.00, 12.00, 0.00), (726.00, 128.00), 5.00
M 1.00000 20 (360.00, 71.00, 0.00), (176.00, 514.00), 1.00
M 1.00000 21 (414.00, 62.00, 0.00), (503.00, 304.00), 1.00
M 1.00000 22 (107.00, 705.00, 0.00), (88.00, 275.00), 1.00
M 1.00000 23 (50.00, 303.00, 0.00), (21.00, 163.00), 4.00
M 1.00000 24 (225.00, 142.00, 0.00), (76.00, 520.00), 4.00
M 1.00000 25 (66.00, 86.00, 0.00), (298.00, 4.00), 5.00
M 1.00000 26 (60.00, 354.00, 0.00), (694.00, 230.00), 3.00
M 1.00000 27 (363.00, 221.00, 0.00), (745.00, 204.00), 1.00
M 1.00000 28 (144.00, 28.00, 0.00), (251.00, 712.00), 4.00
M 1.00000 29 (701.00, 442.00, 0.00), (663.00, 583.00), 2.00
M 1.00000 30 (412.00, 705.00, 0.00), (439.00, 85.00), 4.00
M 1.00000 31 (738.00, 22.00, 0.00), (123.00, 446.00), 4.00
M 1.00000 32 (12.00, 396.00, 0.00), (604.00, 591.00), 5.00
M 1.00000 33 (653.00, 711.00, 0.00), (519.00, 638.00), 2.00
M 1.00000 34 (597.00, 606.00, 0.00), (164.00, 358.00), 1.00
M 1.00000 35 (707.00, 384.00, 0.00), (254.00, 514.00), 1.00
M 1.00000 36 (372.00, 723.00, 0.00), (522.00, 41.00), 3.00
M 1.00000 37 (611.00, 197.00, 0.00), (569.00, 176.00), 4.00
M 1.00000 38 (657.00, 619.00, 0.00), (380.00, 464.00), 1.00
M 1.00000 39 (703.00, 647.00, 0.00), (509.00, 717.00), 3.00
s 1.012825328 _13_ AGT  --- 22 tcp 40 [0 0 0 0] ------- [13:0 9:7 32 0] [0 0] 0 0
r 1.012825328 _13_ RTR  --- 22 tcp 40 [0 0 0 0] ------- [13:0 9:7 32 0] [0 0] 0 0
s 1.012825328 _13_ RTR  --- 22 tcp 60 [0 0 0 0] ------- [13:0 9:7 32 9] [0 0] 0 0
r 1.025953570 _9_ AGT  --- 22 tcp 60 [0 9 d 800] ------- [13:0 9:7 32 9] [0 0] 1 0
s 1.025953570 _9_ AGT  --- 23 ack 40 [0 0 0 0] ------- [9:7 13:0 32 0] [0 0] 0 0
r 1.025953570 _9_ RTR  --- 23 ack 40 [0 0 0 0] ------- [9:7 13:0 32 0] [0 0] 0 0
s 1.025953570 _9_ RTR  --- 23 ack 60 [0 0 0 0] ------- [9:7 13:0 32 13] [0 0] 0 0
r 1.029843651 _13_ AGT  --- 23 ack 60 [0 d 9 800] ------- [9:7 13:0 32 13] [0 0] 1 0
s 1.029843651 _13_ AGT  --- 24 tcp 1040 [0 0 0 0] ------- [13:0 9:7 32 0] [1 0] 0 0
r 1.029843651 _13_ RTR  --- 24 tcp 1040 [0 0 0 0] ------- [13:0 9:7 32 0] [1 0] 0 0
s 1.029843651 _13_ RTR  --- 24 tcp 1060 [0 0 0 0] ------- [13:0 9:7 32 9] [1 0] 0 0
r 1.034245732 _9_ AGT  --- 24 tcp 36 [0 9 d 800] ------- [13:0 9:7 32 9] [1 0] 1 0
s 1.034245732 _9_ AGT  --- 25 ack 40 [0 0 0 0] ------- [9:7 13:0 32 0] [1 0] 0 0
r 1.034245732 _9_ RTR  --- 25 ack 40 [0 0 0 0] ------- [9:7 13:0 32 0] [1 0] 0 0
s 1.034245732 _9_ RTR  --- 25 ack 60 [0 0 0 0] ------- [9:7 13:0 32 13] [1 0] 0 0
r 1.038775813 _13_ AGT  --- 25 ack 60 [0 d 9 800] ------- [9:7 13:0 32 13] [1 0] 1 0
s 1.049263177 _8_ RTR  --- 26 message 32 [0 0 0 0] ------- [8:255 -1:255 32 0] 
r 1.052673287 _35_ RTR  --- 26 message 32 [0 ffffffff 8 800] ------- [8:255 -1:255 32 0] 
r 1.052673352 _29_ RTR  --- 26 message 32 [0 ffffffff 8 800] ------- [8:255 -1:255 32 0] 
r 1.052673466 _12_ RTR  --- 26 message 32 [0 ffffffff 8 800] ------- [8:255 -1:255 32 0] 
r 1.052673512 _7_ RTR  --- 26 message 32 [0 ffffffff 8 800] ------- [8:255 -1:255 32 0] 
r 1.052673755 _13_ RTR  --- 26 message 32 [0 ffffffff 8 800] ------- [8:255 -1:255 32 0] 
r 1.052673766 _9_ RTR  --- 26 message 32 [0 ffffffff 8 800] ------- [8:255 -1:255 32 0] 
r 1.052673800 _1_ RTR  --- 26 message 32 [0 ffffffff 8 800] ------- [8:255 -1:255 32 0] 
r 1.052673801 _2_ RTR  --- 26 message 32 [0 ffffffff 8 800] ------- [8:255 -1:255 32 0] 
r 1.052673807 _11_ RTR  --- 26 message 32 [0 ffffffff 8 800] ------- [8:255 -1:255 32 0] 
r 1.052673874 _37_ RTR  --- 26 message 32 [0 ffffffff 8 800] ------- [8:255 -1:255 32 0] 
r 1.052673923 _38_ RTR  --- 26 message 32 [0 ffffffff 8 800] ------- [8:255 -1:255 32 0] 
r 1.052673925 _34_ RTR  --- 26 message 32 [0 ffffffff 8 800] ------- [8:255 -1:255 32 0] 
s 1.053083472 _20_ AGT  --- 27 tcp 40 [0 0 0 0] ------- [20:1 9:14 32 0] [0 0] 0 0
r 1.053083472 _20_ RTR  --- 27 tcp 40 [0 0 0 0] ------- [20:1 9:14 32 0] [0 0] 0 0
s 1.107219846 _34_ AGT  --- 28 tcp 40 [0 0 0 0] ------- [34:0 9:3 32 0] [0 0] 0 0
r 1.107219846 _34_ RTR  --- 28 tcp 40 [0 0 0 0] ------- [34:0 9:3 32 0] [0 0] 0 0
s 1.107219846 _34_ RTR  --- 28 tcp 60 [0 0 0 0] ------- [34:0 9:3 32 9] [0 0] 0 0
r 1.121628377 _9_ AGT  --- 28 tcp 60 [0 9 22 800] ------- [34:0 9:3 32 9] [0 0] 1 0
s 1.121628377 _9_ AGT  --- 29 ack 40 [0 0 0 0] ------- [9:3 34:0 32 0] [0 0] 0 0
r 1.121628377 _9_ RTR  --- 29 ack 40 [0 0 0 0] ------- [9:3 34:0 32 0] [0 0] 0 0
s 1.121628377 _9_ RTR  --- 29 ack 60 [0 0 0 0] ------- [9:3 34:0 32 34] [0 0] 0 0
r 1.126158553 _34_ AGT  --- 29 ack 60 [0 22 9 800] ------- [9:3 34:0 32 34] [0 0] 1 0
s 1.126158553 _34_ AGT  --- 30 tcp 1040 [0 0 0 0] ------- [34:0 9:3 32 0] [1 0] 0 0
r 1.126158553 _34_ RTR  --- 30 tcp 1040 [0 0 0 0] ------- [34:0 9:3 32 0] [1 0] 0 0
s 1.126158553 _34_ RTR  --- 30 tcp 1060 [0 0 0 0] ------- [34:0 9:3 32 9] [1 0] 0 0
r 1.131200730 _9_ AGT  --- 30 tcp 36 [0 9 22 800] ------- [34:0 9:3 32 9] [1 0] 1 0
s 1.131200730 _9_ AGT  --- 31 ack 40 [0 0 0 0] ------- [9:3 34:0 32 0] [1 0] 0 0
r 1.131200730 _9_ RTR  --- 31 ack 40 [0 0 0 0] ------- [9:3 34:0 32 0] [1 0] 0 0
s 1.131200730 _9_ RTR  --- 31 ack 60 [0 0 0 0] ------- [9:3 34:0 32 34] [1 0] 0 0
r 1.135730907 _34_ AGT  --- 31 ack 60 [0 22 9 800] ------- [9:3 34:0 32 34] [1 0] 1 0
s 1.157653604 _32_ RTR  --- 32 message 32 [0 0 0 0] ------- [32:255 -1:255 32 0] 
r 1.162343620 _6_ RTR  --- 32 message 32 [0 ffffffff 20 800] ------- [32:255 -1:255 32 0] 
r 1.162343816 _26_ RTR  --- 32 message 32 [0 ffffffff 20 800] ------- [32:255 -1:255 32 0] 
r 1.162343940 _23_ RTR  --- 32 message 32 [0 ffffffff 20 800] ------- [32:255 -1:255 32 0] 
r 1.162344098 _14_ RTR  --- 32 message 32 [0 ffffffff 20 800] ------- [32:255 -1:255 32 0] 
r 1.162344276 _3_ RTR  --- 32 message 32 [0 ffffffff 20 800] ------- [32:255 -1:255 32 0] 
r 1.162344309 _0_ RTR  --- 32 message 32 [0 ffffffff 20 800] ------- [32:255 -1:255 32 0] 
s 1.240586482 _6_ RTR  --- 33 message 32 [0 0 0 0] ------- [6:255 -1:255 32 0] 
r 1.243036498 _32_ RTR  --- 33 message 32 [0 ffffffff 6 800] ------- [6:255 -1:255 32 0] 
r 1.243036701 _26_ RTR  --- 33 message 32 [0 ffffffff 6 800] ------- [6:255 -1:255 32 0] 
r 1.243036831 _23_ RTR  --- 33 message 32 [0 ffffffff 6 800] ------- [6:255 -1:255 32 0] 
r 1.243036976 _14_ RTR  --- 33 message 32 [0 ffffffff 6 800] ------- [6:255 -1:255 32 0] 
r 1.243037150 _3_ RTR  --- 33 message 32 [0 ffffffff 6 800] ------- [6:255 -1:255 32 0] 
r 1.243037178 _0_ RTR  --- 33 message 32 [0 ffffffff 6 800] ------- [6:255 -1:255 32 0] 
s 1.254386373 _24_ RTR  --- 34 message 32 [0 0 0 0] ------- [24:255 -1:255 32 0] 
r 1.259076469 _15_ RTR  --- 34 message 32 [0 ffffffff 18 800] ------- [24:255 -1:255 32 0] 
r 1.259076561 _18_ RTR  --- 34 message 32 [0 ffffffff 18 800] ------- [24:255 -1:255 32 0] 
r 1.259076597 _4_ RTR  --- 34 message 32 [0 ffffffff 18 800] ------- [24:255 -1:255 32 0] 
r 1.259076838 _28_ RTR  --- 34 message 32 [0 ffffffff 18 800] ------- [24:255 -1:255 32 0] 
r 1.259076884 _20_ RTR  --- 34 message 32 [0 ffffffff 18 800] ------- [24:255 -1:255 32 0] 
r 1.259076903 _27_ RTR  --- 34 message 32 [0 ffffffff 18 800] ------- [24:255 -1:255 32 0] 
r 1.259076932 _25_ RTR  --- 34 message 32 [0 ffffffff 18 800] ------- [24:255 -1:255 32 0] 
r 1.259077060 _21_ RTR  --- 34 message 32 [0 ffffffff 18 800] ------- [24:255 -1:255 32 0] 
r 1.259077083 _14_ RTR  --- 34 message 32 [0 ffffffff 18 800] ------- [24:255 -1:255 32 0] 
r 1.259077110 _3_ RTR  --- 34 message 32 [0 ffffffff 18 800] ------- [24:255 -1:255 32 0] 
r 1.259077161 _23_ RTR  --- 34 message 32 [0 ffffffff 18 800] ------- [24:255 -1:255 32 0] 
s 1.277448899 _39_ RTR  --- 35 message 32 [0 0 0 0] ------- [39:255 -1:255 32 0] 
r 1.280859077 _38_ RTR  --- 35 message 32 [0 ffffffff 27 800] ------- [39:255 -1:255 32 0] 
r 1.280859142 _1_ RTR  --- 35 message 32 [0 ffffffff 27 800] ------- [39:255 -1:255 32 0] 
r 1.280859167 _33_ RTR  --- 35 message 32 [0 ffffffff 27 800] ------- [39:255 -1:255 32 0] 
r 1.280859253 _16_ RTR  --- 35 message 32 [0 ffffffff 27 800] ------- [39:255 -1:255 32 0] 
r 1.280859276 _34_ RTR  --- 35 message 32 [0 ffffffff 27 800] ------- [39:255 -1:255 32 0] 
r 1.280859376 _9_ RTR  --- 35 message 32 [0 ffffffff 27 800] ------- [39:255 -1:255 32 0] 
r 1.280859458 _13_ RTR  --- 35 message 32 [0 ffffffff 27 800] ------- [39:255 -1:255 32 0] 
r 1.280859458 _7_ RTR  --- 35 message 32 [0 ffffffff 27 800] ------- [39:255 -1:255 32 0] 
r 1.280859581 _29_ RTR  --- 35 message 32 [0 ffffffff 27 800] ------- [39:255 -1:255 32 0] 
s 1.371198109 _7_ AGT  --- 36 tcp 40 [0 0 0 0] ------- [7:0 9:0 32 0] [0 0] 0 0
r 1.371198109 _7_ RTR  --- 36 tcp 40 [0 0 0 0] ------- [7:0 9:0 32 0] [0 0] 0 0
s 1.371198109 _7_ RTR  --- 36 tcp 60 [0 0 0 0] ------- [7:0 9:0 32 9] [0 0] 0 0
r 1.383686898 _9_ AGT  --- 36 tcp 60 [0 9 7 800] ------- [7:0 9:0 32 9] [0 0] 1 0
s 1.383686898 _9_ AGT  --- 37 ack 40 [0 0 0 0] ------- [9:0 7:0 32 0] [0 0] 0 0
r 1.383686898 _9_ RTR  --- 37 ack 40 [0 0 0 0] ------- [9:0 7:0 32 0] [0 0] 0 0
s 1.415823466 _33_ RTR  --- 38 message 32 [0 0 0 0] ------- [33:255 -1:255 32 0] 
r 1.418913611 _16_ RTR  --- 38 message 32 [0 ffffffff 21 800] ------- [33:255 -1:255 32 0] 
r 1.418913734 _39_ RTR  --- 38 message 32 [0 ffffffff 21 800] ------- [33:255 -1:255 32 0] 
r 1.418913773 _38_ RTR  --- 38 message 32 [0 ffffffff 21 800] ------- [33:255 -1:255 32 0] 
r 1.418913862 _34_ RTR  --- 38 message 32 [0 ffffffff 21 800] ------- [33:255 -1:255 32 0] 
r 1.418913969 _1_ RTR  --- 38 message 32 [0 ffffffff 21 800] ------- [33:255 -1:255 32 0] 
r 1.418914027 _9_ RTR  --- 38 message 32 [0 ffffffff 21 800] ------- [33:255 -1:255 32 0] 
r 1.418914099 _13_ RTR  --- 38 message 32 [0 ffffffff 21 800] ------- [33:255 -1:255 32 0] 
r 1.418914202 _7_ RTR  --- 38 message 32 [0 ffffffff 21 800] ------- [33:255 -1:255 32 0] 
r 1.418914267 _30_ RTR  --- 38 message 32 [0 ffffffff 21 800] ------- [33:255 -1:255 32 0] 
s 1.434610508 _8_ AGT  --- 39 tcp 40 [0 0 0 0] ------- [8:1 9:16 32 0] [0 0] 0 0
r 1.434610508 _8_ RTR  --- 39 tcp 40 [0 0 0 0] ------- [8:1 9:16 32 0] [0 0] 0 0
s 1.434610508 _8_ RTR  --- 39 tcp 60 [0 0 0 0] ------- [8:1 9:16 32 9] [0 0] 0 0
s 1.442372910 _38_ AGT  --- 40 tcp 40 [0 0 0 0] ------- [38:0 9:10 32 0] [0 0] 0 0
r 1.442372910 _38_ RTR  --- 40 tcp 40 [0 0 0 0] ------- [38:0 9:10 32 0] [0 0] 0 0
s 1.442372910 _38_ RTR  --- 40 tcp 60 [0 0 0 0] ------- [38:0 9:10 32 9] [0 0] 0 0
r 1.454861819 _9_ AGT  --- 40 tcp 60 [0 9 26 800] ------- [38:0 9:10 32 9] [0 0] 1 0
s 1.454861819 _9_ AGT  --- 41 ack 40 [0 0 0 0] ------- [9:10 38:0 32 0] [0 0] 0 0