s 0.009062526 _0_ RTR  --- 0 message 32 [0 0 0 0] ------- [0:255 -1:255 32 0] 
r 0.012152723 _3_ RTR  --- 0 message 32 [0 ffffffff 0 800] ------- [0:255 -1:255 32 0] 
r 0.012152755 _17_ RTR  --- 0 message 32 [0 ffffffff 0 800] ------- [0:255 -1:255 32 0] 
r 0.012152808 _14_ RTR  --- 0 message 32 [0 ffffffff 0 800] ------- [0:255 -1:255 32 0] 
r 0.012152937 _26_ RTR  --- 0 message 32 [0 ffffffff 0 800] ------- [0:255 -1:255 32 0] 
r 0.012152987 _6_ RTR  --- 0 message 32 [0 ffffffff 0 800] ------- [0:255 -1:255 32 0] 
r 0.012152997 _32_ RTR  --- 0 message 32 [0 ffffffff 0 800] ------- [0:255 -1:255 32 0] 
r 0.012153024 _23_ RTR  --- 0 message 32 [0 ffffffff 0 800] ------- [0:255 -1:255 32 0] 
r 0.012153134 _27_ RTR  --- 0 message 32 [0 ffffffff 0 800] ------- [0:255 -1:255 32 0] 
r 0.012153135 _22_ RTR  --- 0 message 32 [0 ffffffff 0 800] ------- [0:255 -1:255 32 0] 
r 0.012153138 _11_ RTR  --- 0 message 32 [0 ffffffff 0 800] ------- [0:255 -1:255 32 0] 
r 0.012153216 _24_ RTR  --- 0 message 32 [0 ffffffff 0 800] ------- [0:255 -1:255 32 0] 
r 0.012153219 _36_ RTR  --- 0 message 32 [0 ffffffff 0 800] ------- [0:255 -1:255 32 0] 
r 0.012153228 _10_ RTR  --- 0 message 32 [0 ffffffff 0 800] ------- [0:255 -1:255 32 0] 
r 0.012153236 _30_ RTR  --- 0 message 32 [0 ffffffff 0 800] ------- [0:255 -1:255 32 0] 
r 0.012153273 _15_ RTR  --- 0 message 32 [0 ffffffff 0 800] ------- [0:255 -1:255 32 0] 
r 0.012153343 _18_ RTR  --- 0 message 32 [0 ffffffff 0 800] ------- [0:255 -1:255 32 0] 
r 0.012153348 _13_ RTR  --- 0 message 32 [0 ffffffff 0 800] ------- [0:255 -1:255 32 0] 
r 0.012153357 _4_ RTR  --- 0 message 32 [0 ffffffff 0 800] ------- [0:255 -1:255 32 0] 
s 0.012485549 _8_ RTR  --- 1 message 32 [0 0 0 0] ------- [8:255 -1:255 32 0] 
r 0.015575624 _35_ RTR  --- 1 message 32 [0 ffffffff 8 800] ------- [8:255 -1:255 32 0] 
r 0.015575667 _29_ RTR  --- 1 message 32 [0 ffffffff 8 800] ------- [8:255 -1:255 32 0] 
r 0.015575743 _12_ RTR  --- 1 message 32 [0 ffffffff 8 800] ------- [8:255 -1:255 32 0] 
r 0.015575772 _7_ RTR  --- 1 message 32 [0 ffffffff 8 800] ------- [8:255 -1:255 32 0] 
r 0.015575937 _13_ RTR  --- 1 message 32 [0 ffffffff 8 800] ------- [8:255 -1:255 32 0] 
r 0.015575943 _9_ RTR  --- 1 message 32 [0 ffffffff 8 800] ------- [8:255 -1:255 32 0] 
r 0.015575966 _1_ RTR  --- 1 message 32 [0 ffffffff 8 800] ------- [8:255 -1:255 32 0] 
r 0.015575967 _2_ RTR  --- 1 message 32 [0 ffffffff 8 800] ------- [8:255 -1:255 32 0] 
r 0.015575968 _11_ RTR  --- 1 message 32 [0 ffffffff 8 800] ------- [8:255 -1:255 32 0] 
r 0.015576012 _37_ RTR  --- 1 message 32 [0 ffffffff 8 800] ------- [8:255 -1:255 32 0] 
r 0.015576048 _38_ RTR  --- 1 message 32 [0 ffffffff 8 800] ------- [8:255 -1:255 32 0] 
r 0.015576048 _34_ RTR  --- 1 message 32 [0 ffffffff 8 800] ------- [8:255 -1:255 32 0] 
r 0.015576113 _39_ RTR  --- 1 message 32 [0 ffffffff 8 800] ------- [8:255 -1:255 32 0] 
r 0.015576128 _5_ RTR  --- 1 message 32 [0 ffffffff 8 800] ------- [8:255 -1:255 32 0] 
r 0.015576251 _33_ RTR  --- 1 message 32 [0 ffffffff 8 800] ------- [8:255 -1:255 32 0] 
r 0.015576336 _16_ RTR  --- 1 message 32 [0 ffffffff 8 800] ------- [8:255 -1:255 32 0] 
r 0.015576346 _27_ RTR  --- 1 message 32 [0 ffffffff 8 800] ------- [8:255 -1:255 32 0] 
s 0.032581333 _21_ RTR  --- 2 message 32 [0 0 0 0] ------- [21:255 -1:255 32 0] 
r 0.035671455 _20_ RTR  --- 2 message 32 [0 ffffffff 15 800] ------- [21:255 -1:255 32 0] 
r 0.035671704 _27_ RTR  --- 2 message 32 [0 ffffffff 15 800] ------- [21:255 -1:255 32 0] 
r 0.035671756 _18_ RTR  --- 2 message 32 [0 ffffffff 15 800] ------- [21:255 -1:255 32 0] 
r 0.035671779 _5_ RTR  --- 2 message 32 [0 ffffffff 15 800] ------- [21:255 -1:255 32 0] 
r 0.035671789 _24_ RTR  --- 2 message 32 [0 ffffffff 15 800] ------- [21:255 -1:255 32 0] 
r 0.035671799 _15_ RTR  --- 2 message 32 [0 ffffffff 15 800] ------- [21:255 -1:255 32 0] 
r 0.035671808 _4_ RTR  --- 2 message 32 [0 ffffffff 15 800] ------- [21:255 -1:255 32 0] 
r 0.035671864 _2_ RTR  --- 2 message 32 [0 ffffffff 15 800] ------- [21:255 -1:255 32 0] 
r 0.035671866 _37_ RTR  --- 2 message 32 [0 ffffffff 15 800] ------- [21:255 -1:255 32 0] 
r 0.035671938 _28_ RTR  --- 2 message 32 [0 ffffffff 15 800] ------- [21:255 -1:255 32 0] 
r 0.035672026 _19_ RTR  --- 2 message 32 [0 ffffffff 15 800] ------- [21:255 -1:255 32 0] 
r 0.035672059 _31_ RTR  --- 2 message 32 [0 ffffffff 15 800] ------- [21:255 -1:255 32 0] 
r 0.035672108 _25_ RTR  --- 2 message 32 [0 ffffffff 15 800] ------- [21:255 -1:255 32 0] 
r 0.035672134 _11_ RTR  --- 2 message 32 [0 ffffffff 15 800] ------- [21:255 -1:255 32 0] 
r 0.035672139 _3_ RTR  --- 2 message 32 [0 ffffffff 15 800] ------- [21:255 -1:255 32 0] 
s 0.067874479 _5_ RTR  --- 4 message 32 [0 0 0 0] ------- [5:255 -1:255 32 0] 
s 0.070253651 _14_ RTR  --- 3 message 32 [0 0 0 0] ------- [14:255 -1:255 32 0] 
r 0.071604595 _37_ RTR  --- 4 message 32 [0 ffffffff 5 800] ------- [5:255 -1:255 32 0] 
r 0.071604761 _2_ RTR  --- 4 message 32 [0 ffffffff 5 800] ------- [5:255 -1:255 32 0] 
r 0.071604892 _19_ RTR  --- 4 message 32 [0 ffffffff 5 800] ------- [5:255 -1:255 32 0] 
r 0.071604902 _31_ RTR  --- 4 message 32 [0 ffffffff 5 800] ------- [5:255 -1:255 32 0] 
r 0.071604925 _21_ RTR  --- 4 message 32 [0 ffffffff 5 800] ------- [5:255 -1:255 32 0] 
r 0.071605021 _27_ RTR  --- 4 message 32 [0 ffffffff 5 800] ------- [5:255 -1:255 32 0] 
r 0.071605030 _12_ RTR  --- 4 message 32 [0 ffffffff 5 800] ------- [5:255 -1:255 32 0] 
r 0.071605030 _20_ RTR  --- 4 message 32 [0 ffffffff 5 800] ------- [5:255 -1:255 32 0] 
r 0.071605058 _8_ RTR  --- 4 message 32 [0 ffffffff 5 800] ------- [5:255 -1:255 32 0] 
r 0.071605059 _35_ RTR  --- 4 message 32 [0 ffffffff 5 800] ------- [5:255 -1:255 32 0] 
r 0.071605118 _11_ RTR  --- 4 message 32 [0 ffffffff 5 800] ------- [5:255 -1:255 32 0] 
r 0.071605174 _29_ RTR  --- 4 message 32 [0 ffffffff 5 800] ------- [5:255 -1:255 32 0] 
r 0.071605247 _7_ RTR  --- 4 message 32 [0 ffffffff 5 800] ------- [5:255 -1:255 32 0] 
r 0.071605303 _24_ RTR  --- 4 message 32 [0 ffffffff 5 800] ------- [5:255 -1:255 32 0] 
r 0.074623795 _3_ RTR  --- 3 message 32 [0 ffffffff e 800] ------- [14:255 -1:255 32 0] 
r 0.074623855 _26_ RTR  --- 3 message 32 [0 ffffffff e 800] ------- [14:255 -1:255 32 0] 
r 0.074623895 _23_ RTR  --- 3 message 32 [0 ffffffff e 800] ------- [14:255 -1:255 32 0] 
r 0.074623933 _0_ RTR  --- 3 message 32 [0 ffffffff e 800] ------- [14:255 -1:255 32 0] 
r 0.074623981 _6_ RTR  --- 3 message 32 [0 ffffffff e 800] ------- [14:255 -1:255 32 0] 
r 0.074623982 _32_ RTR  --- 3 message 32 [0 ffffffff e 800] ------- [14:255 -1:255 32 0] 
r 0.074624126 _24_ RTR  --- 3 message 32 [0 ffffffff e 800] ------- [14:255 -1:255 32 0] 
r 0.074624158 _17_ RTR  --- 3 message 32 [0 ffffffff e 800] ------- [14:255 -1:255 32 0] 
r 0.074624171 _15_ RTR  --- 3 message 32 [0 ffffffff e 800] ------- [14:255 -1:255 32 0] 
r 0.074624193 _27_ RTR  --- 3 message 32 [0 ffffffff e 800] ------- [14:255 -1:255 32 0] 
r 0.074624247 _18_ RTR  --- 3 message 32 [0 ffffffff e 800] ------- [14:255 -1:255 32 0] 
r 0.074624248 _4_ RTR  --- 3 message 32 [0 ffffffff e 800] ------- [14:255 -1:255 32 0] 
r 0.074624252 _25_ RTR  --- 3 message 32 [0 ffffffff e 800] ------- [14:255 -1:255 32 0] 
r 0.074624351 _28_ RTR  --- 3 message 32 [0 ffffffff e 800] ------- [14:255 -1:255 32 0] 
r 0.074624412 _20_ RTR  --- 3 message 32 [0 ffffffff e 800] ------- [14:255 -1:255 32 0] 
r 0.074624418 _11_ RTR  --- 3 message 32 [0 ffffffff e 800] ------- [14:255 -1:255 32 0] 
r 0.074624460 _22_ RTR  --- 3 message 32 [0 ffffffff e 800] ------- [14:255 -1:255 32 0] 
s 0.137992435 _38_ RTR  --- 5 message 32 [0 0 0 0] ------- [38:255 -1:255 32 0] 
r 0.142042556 _39_ RTR  --- 5 message 32 [0 ffffffff 26 800] ------- [38:255 -1:255 32 0] 
r 0.142042572 _34_ RTR  --- 5 message 32 [0 ffffffff 26 800] ------- [38:255 -1:255 32 0] 
r 0.142042609 _1_ RTR  --- 5 message 32 [0 ffffffff 26 800] ------- [38:255 -1:255 32 0] 
r 0.142042636 _9_ RTR  --- 5 message 32 [0 ffffffff 26 800] ------- [38:255 -1:255 32 0] 
r 0.142042639 _33_ RTR  --- 5 message 32 [0 ffffffff 26 800] ------- [38:255 -1:255 32 0] 
r 0.142042690 _13_ RTR  --- 5 message 32 [0 ffffffff 26 800] ------- [38:255 -1:255 32 0] 
r 0.142042723 _7_ RTR  --- 5 message 32 [0 ffffffff 26 800] ------- [38:255 -1:255 32 0] 
r 0.142042728 _16_ RTR  --- 5 message 32 [0 ffffffff 26 800] ------- [38:255 -1:255 32 0] 
r 0.142042841 _29_ RTR  --- 5 message 32 [0 ffffffff 26 800] ------- [38:255 -1:255 32 0] 
r 0.142042934 _8_ RTR  --- 5 message 32 [0 ffffffff 26 800] ------- [38:255 -1:255 32 0] 
r 0.142042954 _12_ RTR  --- 5 message 32 [0 ffffffff 26 800] ------- [38:255 -1:255 32 0] 
r 0.142042971 _35_ RTR  --- 5 message 32 [0 ffffffff 26 800] ------- [38:255 -1:255 32 0] 
r 0.142043011 _30_ RTR  --- 5 message 32 [0 ffffffff 26 800] ------- [38:255 -1:255 32 0] 
r 0.142043022 _11_ RTR  --- 5 message 32 [0 ffffffff 26 800] ------- [38:255 -1:255 32 0] 
r 0.142043109 _36_ RTR  --- 5 message 32 [0 ffffffff 26 800] ------- [38:255 -1:255 32 0] 
r 0.142043265 _2_ RTR  --- 5 message 32 [0 ffffffff 26 800] ------- [38:255 -1:255 32 0] 
s 0.168377720 _1_ RTR  --- 6 message 32 [0 0 0 0] ------- [1:255 -1:255 32 0] 
r 0.173067883 _39_ RTR  --- 6 message 32 [0 ffffffff 1 800] ------- [1:255 -1:255 32 0] 
r 0.173067894 _38_ RTR  --- 6 message 32 [0 ffffffff 1 800] ------- [1:255 -1:255 32 0] 
r 0.173067982 _7_ RTR  --- 6 message 32 [0 ffffffff 1 800] ------- [1:255 -1:255 32 0] 
r 0.173068007 _34_ RTR  --- 6 message 32 [0 ffffffff 1 800] ------- [1:255 -1:255 32 0] 
r 0.173068008 _9_ RTR  --- 6 message 32 [0 ffffffff 1 800] ------- [1:255 -1:255 32 0] 
r 0.173068024 _29_ RTR  --- 6 message 32 [0 ffffffff 1 800] ------- [1:255 -1:255 32 0] 
r 0.173068055 _33_ RTR  --- 6 message 32 [0 ffffffff 1 800] ------- [1:255 -1:255 32 0] 
r 0.173068058 _13_ RTR  --- 6 message 32 [0 ffffffff 1 800] ------- [1:255 -1:255 32 0] 
r 0.173068118 _16_ RTR  --- 6 message 32 [0 ffffffff 1 800] ------- [1:255 -1:255 32 0] 
r 0.173068136 _8_ RTR  --- 6 message 32 [0 ffffffff 1 800] ------- [1:255 -1:255 32 0] 
r 0.173068151 _35_ RTR  --- 6 message 32 [0 ffffffff 1 800] ------- [1:255 -1:255 32 0] 
r 0.173068221 _12_ RTR  --- 6 message 32 [0 ffffffff 1 800] ------- [1:255 -1:255 32 0] 
r 0.173068352 _11_ RTR  --- 6 message 32 [0 ffffffff 1 800] ------- [1:255 -1:255 32 0] 
r 0.173068466 _30_ RTR  --- 6 message 32 [0 ffffffff 1 800] ------- [1:255 -1:255 32 0] 
r 0.173068523 _2_ RTR  --- 6 message 32 [0 ffffffff 1 800] ------- [1:255 -1:255 32 0] 
s 0.243707767 _25_ RTR  --- 7 message 32 [0 0 0 0] ------- [25:255 -1:255 32 0] 
r 0.247117984 _28_ RTR  --- 7 message 32 [0 ffffffff 19 800] ------- [25:255 -1:255 32 0] 
r 0.247118067 _4_ RTR  --- 7 message 32 [0 ffffffff 19 800] ------- [25:255 -1:255 32 0] 
r 0.247118097 _15_ RTR  --- 7 message 32 [0 ffffffff 19 800] ------- [25:255 -1:255 32 0] 
r 0.247118120 _18_ RTR  --- 7 message 32 [0 ffffffff 19 800] ------- [25:255 -1:255 32 0] 
r 0.247118141 _24_ RTR  --- 7 message 32 [0 ffffffff 19 800] ------- [25:255 -1:255 32 0] 
r 0.247118248 _23_ RTR  --- 7 message 32 [0 ffffffff 19 800] ------- [25:255 -1:255 32 0] 
r 0.247118360 _26_ RTR  --- 7 message 32 [0 ffffffff 19 800] ------- [25:255 -1:255 32 0] 
r 0.247118368 _14_ RTR  --- 7 message 32 [0 ffffffff 19 800] ------- [25:255 -1:255 32 0] 
r 0.247118421 _20_ RTR  --- 7 message 32 [0 ffffffff 19 800] ------- [25:255 -1:255 32 0] 
r 0.247118464 _32_ RTR  --- 7 message 32 [0 ffffffff 19 800] ------- [25:255 -1:255 32 0] 
r 0.247118465 _3_ RTR  --- 7 message 32 [0 ffffffff 19 800] ------- [25:255 -1:255 32 0] 
r 0.247118476 _6_ RTR  --- 7 message 32 [0 ffffffff 19 800] ------- [25:255 -1:255 32 0] 
r 0.247118492 _27_ RTR  --- 7 message 32 [0 ffffffff 19 800] ------- [25:255 -1:255 32 0] 
r 0.247118542 _21_ RTR  --- 7 message 32 [0 ffffffff 19 800] ------- [25:255 -1:255 32 0] 
s 0.322207733 _36_ RTR  --- 8 message 32 [0 0 0 0] ------- [36:255 -1:255 32 0] 
r 0.325617832 _30_ RTR  --- 8 message 32 [0 ffffffff 24 800] ------- [36:255 -1:255 32 0] 
r 0.325618208 _17_ RTR  --- 8 message 32 [0 ffffffff 24 800] ------- [36:255 -1:255 32 0] 
r 0.325618297 _34_ RTR  --- 8 message 32 [0 ffffffff 24 800] ------- [36:255 -1:255 32 0] 
r 0.325618321 _22_ RTR  --- 8 message 32 [0 ffffffff 24 800] ------- [36:255 -1:255 32 0] 
r 0.325618344 _13_ RTR  --- 8 message 32 [0 ffffffff 24 800] ------- [36:255 -1:255 32 0] 
r 0.325618357 _9_ RTR  --- 8 message 32 [0 ffffffff 24 800] ------- [36:255 -1:255 32 0] 
r 0.325618357 _33_ RTR  --- 8 message 32 [0 ffffffff 24 800] ------- [36:255 -1:255 32 0] 
r 0.325618397 _10_ RTR  --- 8 message 32 [0 ffffffff 24 800] ------- [36:255 -1:255 32 0] 
r 0.325618407 _38_ RTR  --- 8 message 32 [0 ffffffff 24 800] ------- [36:255 -1:255 32 0] 
r 0.325618409 _16_ RTR  --- 8 message 32 [0 ffffffff 24 800] ------- [36:255 -1:255 32 0] 
r 0.325618426 _0_ RTR  --- 8 message 32 [0 ffffffff 24 800] ------- [36:255 -1:255 32 0] 
r 0.325618464 _11_ RTR  --- 8 message 32 [0 ffffffff 24 800] ------- [36:255 -1:255 32 0] 
r 0.325618488 _39_ RTR  --- 8 message 32 [0 ffffffff 24 800] ------- [36:255 -1:255 32 0] 
r 0.325618528 _7_ RTR  --- 8 message 32 [0 ffffffff 24 800] ------- [36:255 -1:255 32 0] 
s 0.345066634 _13_ RTR  --- 9 message 32 [0 0 0 0] ------- [13:255 -1:255 32 0] 
r 0.348796688 _9_ RTR  --- 9 message 32 [0 ffffffff d 800] ------- [13:255 -1:255 32 0] 
r 0.348796791 _34_ RTR  --- 9 message 32 [0 ffffffff d 800] ------- [13:255 -1:255 32 0] 
r 0.348796818 _7_ RTR  --- 9 message 32 [0 ffffffff d 800] ------- [13:255 -1:255 32 0] 
r 0.348796888 _38_ RTR  --- 9 message 32 [0 ffffffff d 800] ------- [13:255 -1:255 32 0] 
r 0.348796952 _12_ RTR  --- 9 message 32 [0 ffffffff d 800] ------- [13:255 -1:255 32 0] 
r 0.348796968 _11_ RTR  --- 9 message 32 [0 ffffffff d 800] ------- [13:255 -1:255 32 0] 
r 0.348796972 _1_ RTR  --- 9 message 32 [0 ffffffff d 800] ------- [13:255 -1:255 32 0] 
r 0.348796986 _29_ RTR  --- 9 message 32 [0 ffffffff d 800] ------- [13:255 -1:255 32 0] 
r 0.348797007 _39_ RTR  --- 9 message 32 [0 ffffffff d 800] ------- [13:255 -1:255 32 0] 
r 0.348797021 _8_ RTR  --- 9 message 32 [0 ffffffff d 800] ------- [13:255 -1:255 32 0] 
r 0.348797053 _33_ RTR  --- 9 message 32 [0 ffffffff d 800] ------- [13:255 -1:255 32 0] 
r 0.348797085 _35_ RTR  --- 9 message 32 [0 ffffffff d 800] ------- [13:255 -1:255 32 0] 
r 0.348797152 _30_ RTR  --- 9 message 32 [0 ffffffff d 800] ------- [13:255 -1:255 32 0] 
r 0.348797153 _16_ RTR  --- 9 message 32 [0 ffffffff d 800] ------- [13:255 -1:255 32 0] 
r 0.348797245 _36_ RTR  --- 9 message 32 [0 ffffffff d 800] ------- [13:255 -1:255 32 0] 
r 0.348797248 _2_ RTR  --- 9 message 32 [0 ffffffff d 800] ------- [13:255 -1:255 32 0] 
r 0.348797274 _17_ RTR  --- 9 message 32 [0 ffffffff d 800] ------- [13:255 -1:255 32 0] 
r 0.348797394 _37_ RTR  --- 9 message 32 [0 ffffffff d 800] ------- [13:255 -1:255 32 0] 
r 0.348797456 _0_ RTR  --- 9 message 32 [0 ffffffff d 800] ------- [13:255 -1:255 32 0] 
s 0.355428466 _39_ RTR  --- 10 message 32 [0 0 0 0] ------- [39:255 -1:255 32 0] 
r 0.359798587 _38_ RTR  --- 10 message 32 [0 ffffffff 27 800] ------- [39:255 -1:255 32 0] 
r 0.359798628 _1_ RTR  --- 10 message 32 [0 ffffffff 27 800] ------- [39:255 -1:255 32 0] 
r 0.359798646 _33_ RTR  --- 10 message 32 [0 ffffffff 27 800] ------- [39:255 -1:255 32 0] 
r 0.359798701 _16_ RTR  --- 10 message 32 [0 ffffffff 27 800] ------- [39:255 -1:255 32 0] 
r 0.359798720 _34_ RTR  --- 10 message 32 [0 ffffffff 27 800] ------- [39:255 -1:255 32 0] 
r 0.359798785 _9_ RTR  --- 10 message 32 [0 ffffffff 27 800] ------- [39:255 -1:255 32 0] 
r 0.359798839 _13_ RTR  --- 10 message 32 [0 ffffffff 27 800] ------- [39:255 -1:255 32 0] 
r 0.359798840 _7_ RTR  --- 10 message 32 [0 ffffffff 27 800] ------- [39:255 -1:255 32 0] 
r 0.359798923 _29_ RTR  --- 10 message 32 [0 ffffffff 27 800] ------- [39:255 -1:255 32 0] 
r 0.359799029 _8_ RTR  --- 10 message 32 [0 ffffffff 27 800] ------- [39:255 -1:255 32 0] 
r 0.359799053 _35_ RTR  --- 10 message 32 [0 ffffffff 27 800] ------- [39:255 -1:255 32 0] 
r 0.359799081 _12_ RTR  --- 10 message 32 [0 ffffffff 27 800] ------- [39:255 -1:255 32 0] 
r 0.359799125 _30_ RTR  --- 10 message 32 [0 ffffffff 27 800] ------- [39:255 -1:255 32 0] 
r 0.359799169 _11_ RTR  --- 10 message 32 [0 ffffffff 27 800] ------- [39:255 -1:255 32 0] 
r 0.359799221 _36_ RTR  --- 10 message 32 [0 ffffffff 27 800] ------- [39:255 -1:255 32 0] 
s 0.416848814 _20_ RTR  --- 11 message 32 [0 0 0 0] ------- [20:255 -1:255 32 0] 
r 0.421538936 _21_ RTR  --- 11 message 32 [0 ffffffff 14 800] ------- [20:255 -1:255 32 0] 
r 0.421539116 _18_ RTR  --- 11 message 32 [0 ffffffff 14 800] ------- [20:255 -1:255 32 0] 
r 0.421539148 _27_ RTR  --- 11 message 32 [0 ffffffff 14 800] ------- [20:255 -1:255 32 0] 
r 0.421539153 _24_ RTR  --- 11 message 32 [0 ffffffff 14 800] ------- [20:255 -1:255 32 0] 
r 0.421539159 _15_ RTR  --- 11 message 32 [0 ffffffff 14 800] ------- [20:255 -1:255 32 0] 
r 0.421539168 _4_ RTR  --- 11 message 32 [0 ffffffff 14 800] ------- [20:255 -1:255 32 0] 
r 0.421539304 _28_ RTR  --- 11 message 32 [0 ffffffff 14 800] ------- [20:255 -1:255 32 0] 
r 0.421539365 _5_ RTR  --- 11 message 32 [0 ffffffff 14 800] ------- [20:255 -1:255 32 0] 
r 0.421539404 _2_ RTR  --- 11 message 32 [0 ffffffff 14 800] ------- [20:255 -1:255 32 0] 
r 0.421539440 _37_ RTR  --- 11 message 32 [0 ffffffff 14 800] ------- [20:255 -1:255 32 0] 
r 0.421539469 _25_ RTR  --- 11 message 32 [0 ffffffff 14 800] ------- [20:255 -1:255 32 0] 
r 0.421539542 _3_ RTR  --- 11 message 32 [0 ffffffff 14 800] ------- [20:255 -1:255 32 0] 
r 0.421539575 _14_ RTR  --- 11 message 32 [0 ffffffff 14 800] ------- [20:255 -1:255 32 0] 
r 0.421539629 _19_ RTR  --- 11 message 32 [0 ffffffff 14 800] ------- [20:255 -1:255 32 0] 
r 0.421539630 _11_ RTR  --- 11 message 32 [0 ffffffff 14 800] ------- [20:255 -1:255 32 0] 
s 0.434421339 _27_ RTR  --- 12 message 32 [0 0 0 0] ------- [27:255 -1:255 32 0] 
r 0.437831672 _20_ RTR  --- 12 message 32 [0 ffffffff 1b 800] ------- [27:255 -1:255 32 0] 
r 0.437831693 _24_ RTR  --- 12 message 32 [0 ffffffff 1b 800] ------- [27:255 -1:255 32 0] 
r 0.437831710 _21_ RTR  --- 12 message 32 [0 ffffffff 1b 800] ------- [27:255 -1:255 32 0] 
r 0.437831748 _15_ RTR  --- 12 message 32 [0 ffffffff 1b 800] ------- [27:255 -1:255 32 0] 
r 0.437831749 _2_ RTR  --- 12 message 32 [0 ffffffff 1b 800] ------- [27:255 -1:255 32 0] 
r 0.437831770 _18_ RTR  --- 12 message 32 [0 ffffffff 1b 800] ------- [27:255 -1:255 32 0] 
r 0.437831798 _3_ RTR  --- 12 message 32 [0 ffffffff 1b 800] ------- [27:255 -1:255 32 0] 
r 0.437831818 _4_ RTR  --- 12 message 32 [0 ffffffff 1b 800] ------- [27:255 -1:255 32 0] 
r 0.437831852 _11_ RTR  --- 12 message 32 [0 ffffffff 1b 800] ------- [27:255 -1:255 32 0] 
r 0.437831881 _5_ RTR  --- 12 message 32 [0 ffffffff 1b 800] ------- [27:255 -1:255 32 0] 
r 0.437831881 _14_ RTR  --- 12 message 32 [0 ffffffff 1b 800] ------- [27:255 -1:255 32 0] 
r 0.437831895 _37_ RTR  --- 12 message 32 [0 ffffffff 1b 800] ------- [27:255 -1:255 32 0] 
r 0.437831947 _0_ RTR  --- 12 message 32 [0 ffffffff 1b 800] ------- [27:255 -1:255 32 0] 
r 0.437831973 _12_ RTR  --- 12 message 32 [0 ffffffff 1b 800] ------- [27:255 -1:255 32 0] 
r 0.437831988 _28_ RTR  --- 12 message 32 [0 ffffffff 1b 800] ------- [27:255 -1:255 32 0] 
r 0.437832036 _17_ RTR  --- 12 message 32 [0 ffffffff 1b 800] ------- [27:255 -1:255 32 0] 
r 0.437832058 _23_ RTR  --- 12 message 32 [0 ffffffff 1b 800] ------- [27:255 -1:255 32 0] 
r 0.437832064 _25_ RTR  --- 12 message 32 [0 ffffffff 1b 800] ------- [27:255 -1:255 32 0] 
r 0.437832073 _26_ RTR  --- 12 message 32 [0 ffffffff 1b 800] ------- [27:255 -1:255 32 0] 
r 0.437832135 _8_ RTR  --- 12 message 32 [0 ffffffff 1b 800] ------- [27:255 -1:255 32 0] 
s 0.473885630 _37_ RTR  --- 13 message 32 [0 0 0 0] ------- [37:255 -1:255 32 0] 
r 0.477935746 _5_ RTR  --- 13 message 32 [0 ffffffff 25 800] ------- [37:255 -1:255 32 0] 
r 0.477935842 _2_ RTR  --- 13 message 32 [0 ffffffff 25 800] ------- [37:255 -1:255 32 0] 
r 0.477936073 _12_ RTR  --- 13 message 32 [0 ffffffff 25 800] ------- [37:255 -1:255 32 0] 
r 0.477936093 _8_ RTR  --- 13 message 32 [0 ffffffff 25 800] ------- [37:255 -1:255 32 0] 
r 0.477936095 _35_ RTR  --- 13 message 32 [0 ffffffff 25 800] ------- [37:255 -1:255 32 0] 
r 0.477936110 _19_ RTR  --- 13 message 32 [0 ffffffff 25 800] ------- [37:255 -1:255 32 0] 
r 0.477936110 _31_ RTR  --- 13 message 32 [0 ffffffff 25 800] ------- [37:255 -1:255 32 0] 
r 0.477936162 _21_ RTR  --- 13 message 32 [0 ffffffff 25 800] ------- [37:255 -1:255 32 0] 
r 0.477936185 _11_ RTR  --- 13 message 32 [0 ffffffff 25 800] ------- [37:255 -1:255 32 0] 
r 0.477936186 _27_ RTR  --- 13 message 32 [0 ffffffff 25 800] ------- [37:255 -1:255 32 0] 
r 0.477936209 _29_ RTR  --- 13 message 32 [0 ffffffff 25 800] ------- [37:255 -1:255 32 0] 
r 0.477936256 _20_ RTR  --- 13 message 32 [0 ffffffff 25 800] ------- [37:255 -1:255 32 0] 
r 0.477936284 _7_ RTR  --- 13 message 32 [0 ffffffff 25 800] ------- [37:255 -1:255 32 0] 
r 0.477936391 _13_ RTR  --- 13 message 32 [0 ffffffff 25 800] ------- [37:255 -1:255 32 0] 
r 0.477936421 _9_ RTR  --- 13 message 32 [0 ffffffff 25 800] ------- [37:255 -1:255 32 0] 
s 0.610393676 _7_ RTR  --- 14 message 32 [0 0 0 0] ------- [7:255 -1:255 32 0] 
r 0.613483844 _29_ RTR  --- 14 message 32 [0 ffffffff 7 800] ------- [7:255 -1:255 32 0] 
r 0.613483852 _9_ RTR  --- 14 message 32 [0 ffffffff 7 800] ------- [7:255 -1:255 32 0] 
r 0.613483860 _13_ RTR  --- 14 message 32 [0 ffffffff 7 800] ------- [7:255 -1:255 32 0] 
r 0.613483898 _8_ RTR  --- 14 message 32 [0 ffffffff 7 800] ------- [7:255 -1:255 32 0] 
r 0.613483918 _12_ RTR  --- 14 message 32 [0 ffffffff 7 800] ------- [7:255 -1:255 32 0] 
r 0.613483938 _1_ RTR  --- 14 message 32 [0 ffffffff 7 800] ------- [7:255 -1:255 32 0] 
r 0.613483953 _34_ RTR  --- 14 message 32 [0 ffffffff 7 800] ------- [7:255 -1:255 32 0] 
r 0.613483953 _35_ RTR  --- 14 message 32 [0 ffffffff 7 800] ------- [7:255 -1:255 32 0] 
r 0.613483964 _38_ RTR  --- 14 message 32 [0 ffffffff 7 800] ------- [7:255 -1:255 32 0] 
r 0.613484050 _39_ RTR  --- 14 message 32 [0 ffffffff 7 800] ------- [7:255 -1:255 32 0] 
r 0.613484058 _11_ RTR  --- 14 message 32 [0 ffffffff 7 800] ------- [7:255 -1:255 32 0] 
r 0.613484166 _33_ RTR  --- 14 message 32 [0 ffffffff 7 800] ------- [7:255 -1:255 32 0] 
r 0.613484227 _2_ RTR  --- 14 message 32 [0 ffffffff 7 800] ------- [7:255 -1:255 32 0] 
r 0.613484257 _16_ RTR  --- 14 message 32 [0 ffffffff 7 800] ------- [7:255 -1:255 32 0] 
r 0.613484330 _37_ RTR  --- 14 message 32 [0 ffffffff 7 800] ------- [7:255 -1:255 32 0] 
r 0.613484376 _30_ RTR  --- 14 message 32 [0 ffffffff 7 800] ------- [7:255 -1:255 32 0] 
r 0.613484443 _5_ RTR  --- 14 message 32 [0 ffffffff 7 800] ------- [7:255 -1:255 32 0] 
r 0.613484470 _17_ RTR  --- 14 message 32 [0 ffffffff 7 800] ------- [7:255 -1:255 32 0] 
r 0.613484470 _36_ RTR  --- 14 message 32 [0 ffffffff 7 800] ------- [7:255 -1:255 32 0] 
s 0.644008788 _9_ RTR  --- 15 message 32 [0 0 0 0] ------- [9:255 -1:255 32 0] 
r 0.647418842 _13_ RTR  --- 15 message 32 [0 ffffffff 9 800] ------- [9:255 -1:255 32 0] 
r 0.647418904 _34_ RTR  --- 15 message 32 [0 ffffffff 9 800] ------- [9:255 -1:255 32 0] 
r 0.647418964 _7_ RTR  --- 15 message 32 [0 ffffffff 9 800] ------- [9:255 -1:255 32 0] 
r 0.647418988 _38_ RTR  --- 15 message 32 [0 ffffffff 9 800] ------- [9:255 -1:255 32 0] 
r 0.647419076 _1_ RTR  --- 15 message 32 [0 ffffffff 9 800] ------- [9:255 -1:255 32 0] 
r 0.647419107 _39_ RTR  --- 15 message 32 [0 ffffffff 9 800] ------- [9:255 -1:255 32 0] 
r 0.647419130 _29_ RTR  --- 15 message 32 [0 ffffffff 9 800] ------- [9:255 -1:255 32 0] 
r 0.647419138 _12_ RTR  --- 15 message 32 [0 ffffffff 9 800] ------- [9:255 -1:255 32 0] 
r 0.647419160 _33_ RTR  --- 15 message 32 [0 ffffffff 9 800] ------- [9:255 -1:255 32 0] 
r 0.647419175 _11_ RTR  --- 15 message 32 [0 ffffffff 9 800] ------- [9:255 -1:255 32 0] 
r 0.647419181 _8_ RTR  --- 15 message 32 [0 ffffffff 9 800] ------- [9:255 -1:255 32 0] 
r 0.647419240 _35_ RTR  --- 15 message 32 [0 ffffffff 9 800] ------- [9:255 -1:255 32 0] 
r 0.647419259 _16_ RTR  --- 15 message 32 [0 ffffffff 9 800] ------- [9:255 -1:255 32 0] 
r 0.647419316 _30_ RTR  --- 15 message 32 [0 ffffffff 9 800] ------- [9:255 -1:255 32 0] 
r 0.647419411 _36_ RTR  --- 15 message 32 [0 ffffffff 9 800] ------- [9:255 -1:255 32 0] 
r 0.647419442 _2_ RTR  --- 15 message 32 [0 ffffffff 9 800] ------- [9:255 -1:255 32 0] 
r 0.647419474 _17_ RTR  --- 15 message 32 [0 ffffffff 9 800] ------- [9:255 -1:255 32 0] 
r 0.647419579 _37_ RTR  --- 15 message 32 [0 ffffffff 9 800] ------- [9:255 -1:255 32 0] 
s 0.662977502 _24_ RTR  --- 16 message 32 [0 0 0 0] ------- [24:255 -1:255 32 0] 
r 0.665747566 _15_ RTR  --- 16 message 32 [0 ffffffff 18 800] ------- [24:255 -1:255 32 0] 
r 0.665747628 _18_ RTR  --- 16 message 32 [0 ffffffff 18 800] ------- [24:255 -1:255 32 0] 
r 0.665747651 _4_ RTR  --- 16 message 32 [0 ffffffff 18 800] ------- [24:255 -1:255 32 0] 
r 0.665747812 _28_ RTR  --- 16 message 32 [0 ffffffff 18 800] ------- [24:255 -1:255 32 0] 
r 0.665747840 _20_ RTR  --- 16 message 32 [0 ffffffff 18 800] ------- [24:255 -1:255 32 0] 
r 0.665747855 _27_ RTR  --- 16 message 32 [0 ffffffff 18 800] ------- [24:255 -1:255 32 0] 
r 0.665747876 _25_ RTR  --- 16 message 32 [0 ffffffff 18 800] ------- [24:255 -1:255 32 0] 
r 0.665747957 _21_ RTR  --- 16 message 32 [0 ffffffff 18 800] ------- [24:255 -1:255 32 0] 
r 0.665747977 _14_ RTR  --- 16 message 32 [0 ffffffff 18 800] ------- [24:255 -1:255 32 0] 
r 0.665747996 _3_ RTR  --- 16 message 32 [0 ffffffff 18 800] ------- [24:255 -1:255 32 0] 
r 0.665748030 _23_ RTR  --- 16 message 32 [0 ffffffff 18 800] ------- [24:255 -1:255 32 0] 
r 0.665748098 _26_ RTR  --- 16 message 32 [0 ffffffff 18 800] ------- [24:255 -1:255 32 0] 
r 0.665748192 _0_ RTR  --- 16 message 32 [0 ffffffff 18 800] ------- [24:255 -1:255 32 0] 
r 0.665748237 _32_ RTR  --- 16 message 32 [0 ffffffff 18 800] ------- [24:255 -1:255 32 0] 
r 0.665748243 _6_ RTR  --- 16 message 32 [0 ffffffff 18 800] ------- [24:255 -1:255 32 0] 
r 0.665748258 _2_ RTR  --- 16 message 32 [0 ffffffff 18 800] ------- [24:255 -1:255 32 0] 
r 0.665748325 _5_ RTR  --- 16 message 32 [0 ffffffff 18 800] ------- [24:255 -1:255 32 0] 
s 0.671512376 _2_ RTR  --- 17 message 32 [0 0 0 0] ------- [2:255 -1:255 32 0] 
r 0.673962588 _37_ RTR  --- 17 message 32 [0 ffffffff 2 800] ------- [2:255 -1:255 32 0] 
r 0.673962658 _5_ RTR  --- 17 message 32 [0 ffffffff 2 800] ------- [2:255 -1:255 32 0] 
r 0.673962687 _12_ RTR  --- 17 message 32 [0 ffffffff 2 800] ------- [2:255 -1:255 32 0] 
r 0.673962733 _11_ RTR  --- 17 message 32 [0 ffffffff 2 800] ------- [2:255 -1:255 32 0] 
r 0.673962786 _27_ RTR  --- 17 message 32 [0 ffffffff 2 800] ------- [2:255 -1:255 32 0] 
r 0.673962793 _8_ RTR  --- 17 message 32 [0 ffffffff 2 800] ------- [2:255 -1:255 32 0] 
r 0.673962829 _35_ RTR  --- 17 message 32 [0 ffffffff 2 800] ------- [2:255 -1:255 32 0] 
r 0.673962906 _21_ RTR  --- 17 message 32 [0 ffffffff 2 800] ------- [2:255 -1:255 32 0] 
r 0.673962907 _29_ RTR  --- 17 message 32 [0 ffffffff 2 800] ------- [2:255 -1:255 32 0] 
r 0.673962926 _7_ RTR  --- 17 message 32 [0 ffffffff 2 800] ------- [2:255 -1:255 32 0] 
r 0.673962965 _20_ RTR  --- 17 message 32 [0 ffffffff 2 800] ------- [2:255 -1:255 32 0] 
r 0.673962990 _13_ RTR  --- 17 message 32 [0 ffffffff 2 800] ------- [2:255 -1:255 32 0] 
r 0.673963029 _9_ RTR  --- 17 message 32 [0 ffffffff 2 800] ------- [2:255 -1:255 32 0] 
r 0.673963062 _19_ RTR  --- 17 message 32 [0 ffffffff 2 800] ------- [2:255 -1:255 32 0] 
r 0.673963065 _31_ RTR  --- 17 message 32 [0 ffffffff 2 800] ------- [2:255 -1:255 32 0] 
r 0.673963132 _24_ RTR  --- 17 message 32 [0 ffffffff 2 800] ------- [2:255 -1:255 32 0] 
r 0.673963142 _3_ RTR  --- 17 message 32 [0 ffffffff 2 800] ------- [2:255 -1:255 32 0] 
r 0.673963145 _34_ RTR  --- 17 message 32 [0 ffffffff 2 800] ------- [2:255 -1:255 32 0] 
r 0.673963179 _1_ RTR  --- 17 message 32 [0 ffffffff 2 800] ------- [2:255 -1:255 32 0] 
r 0.673963181 _15_ RTR  --- 17 message 32 [0 ffffffff 2 800] ------- [2:255 -1:255 32 0] 
r 0.673963186 _18_ RTR  --- 17 message 32 [0 ffffffff 2 800] ------- [2:255 -1:255 32 0] 
r 0.673963189 _17_ RTR  --- 17 message 32 [0 ffffffff 2 800] ------- [2:255 -1:255 32 0] 
r 0.673963205 _38_ RTR  --- 17 message 32 [0 ffffffff 2 800] ------- [2:255 -1:255 32 0] 
s 0.734422856 _6_ RTR  --- 18 message 32 [0 0 0 0] ------- [6:255 -1:255 32 0] 
r 0.737192871 _32_ RTR  --- 18 message 32 [0 ffffffff 6 800] ------- [6:255 -1:255 32 0] 
r 0.737193002 _26_ RTR  --- 18 message 32 [0 ffffffff 6 800] ------- [6:255 -1:255 32 0] 
r 0.737193089 _23_ RTR  --- 18 message 32 [0 ffffffff 6 800] ------- [6:255 -1:255 32 0] 
r 0.737193186 _14_ RTR  --- 18 message 32 [0 ffffffff 6 800] ------- [6:255 -1:255 32 0] 
r 0.737193304 _3_ RTR  --- 18 message 32 [0 ffffffff 6 800] ------- [6:255 -1:255 32 0] 
r 0.737193317 _0_ RTR  --- 18 message 32 [0 ffffffff 6 800] ------- [6:255 -1:255 32 0] 
r 0.737193523 _17_ RTR  --- 18 message 32 [0 ffffffff 6 800] ------- [6:255 -1:255 32 0] 
r 0.737193561 _22_ RTR  --- 18 message 32 [0 ffffffff 6 800] ------- [6:255 -1:255 32 0] 
r 0.737193565 _25_ RTR  --- 18 message 32 [0 ffffffff 6 800] ------- [6:255 -1:255 32 0] 
r 0.737193598 _24_ RTR  --- 18 message 32 [0 ffffffff 6 800] ------- [6:255 -1:255 32 0] 
r 0.737193608 _10_ RTR  --- 18 message 32 [0 ffffffff 6 800] ------- [6:255 -1:255 32 0] 
r 0.737193625 _15_ RTR  --- 18 message 32 [0 ffffffff 6 800] ------- [6:255 -1:255 32 0] 
r 0.737193684 _4_ RTR  --- 18 message 32 [0 ffffffff 6 800] ------- [6:255 -1:255 32 0] 
s 0.820760492 _30_ RTR  --- 19 message 32 [0 0 0 0] ------- [30:255 -1:255 32 0] 