s 0.007255700 _52_ RTR  --- 0 message 32 [0 0 0 0] ------- [52:255 -1:255 32 0] 
r 0.010985814 _22_ RTR  --- 0 message 32 [0 ffffffff 34 800] ------- [52:255 -1:255 32 0] 
r 0.010985890 _10_ RTR  --- 0 message 32 [0 ffffffff 34 800] ------- [52:255 -1:255 32 0] 
r 0.010985944 _45_ RTR  --- 0 message 32 [0 ffffffff 34 800] ------- [52:255 -1:255 32 0] 
r 0.010986091 _42_ RTR  --- 0 message 32 [0 ffffffff 34 800] ------- [52:255 -1:255 32 0] 
r 0.010986170 _50_ RTR  --- 0 message 32 [0 ffffffff 34 800] ------- [52:255 -1:255 32 0] 
r 0.010986177 _36_ RTR  --- 0 message 32 [0 ffffffff 34 800] ------- [52:255 -1:255 32 0] 
r 0.010986216 _17_ RTR  --- 0 message 32 [0 ffffffff 34 800] ------- [52:255 -1:255 32 0] 
r 0.010986267 _30_ RTR  --- 0 message 32 [0 ffffffff 34 800] ------- [52:255 -1:255 32 0] 
r 0.010986304 _0_ RTR  --- 0 message 32 [0 ffffffff 34 800] ------- [52:255 -1:255 32 0] 
r 0.010986471 _6_ RTR  --- 0 message 32 [0 ffffffff 34 800] ------- [52:255 -1:255 32 0] 
r 0.010986486 _32_ RTR  --- 0 message 32 [0 ffffffff 34 800] ------- [52:255 -1:255 32 0] 
r 0.010986496 _3_ RTR  --- 0 message 32 [0 ffffffff 34 800] ------- [52:255 -1:255 32 0] 
s 0.088020426 _32_ RTR  --- 1 message 32 [0 0 0 0] ------- [32:255 -1:255 32 0] 
r 0.090470441 _6_ RTR  --- 1 message 32 [0 ffffffff 20 800] ------- [32:255 -1:255 32 0] 
r 0.090470567 _26_ RTR  --- 1 message 32 [0 ffffffff 20 800] ------- [32:255 -1:255 32 0] 
r 0.090470649 _23_ RTR  --- 1 message 32 [0 ffffffff 20 800] ------- [32:255 -1:255 32 0] 
r 0.090470756 _50_ RTR  --- 1 message 32 [0 ffffffff 20 800] ------- [32:255 -1:255 32 0] 
r 0.090470757 _14_ RTR  --- 1 message 32 [0 ffffffff 20 800] ------- [32:255 -1:255 32 0] 
r 0.090470866 _46_ RTR  --- 1 message 32 [0 ffffffff 20 800] ------- [32:255 -1:255 32 0] 
r 0.090470878 _3_ RTR  --- 1 message 32 [0 ffffffff 20 800] ------- [32:255 -1:255 32 0] 
r 0.090470896 _0_ RTR  --- 1 message 32 [0 ffffffff 20 800] ------- [32:255 -1:255 32 0] 
r 0.090470902 _42_ RTR  --- 1 message 32 [0 ffffffff 20 800] ------- [32:255 -1:255 32 0] 
r 0.090470998 _44_ RTR  --- 1 message 32 [0 ffffffff 20 800] ------- [32:255 -1:255 32 0] 
r 0.090471099 _40_ RTR  --- 1 message 32 [0 ffffffff 20 800] ------- [32:255 -1:255 32 0] 
r 0.090471104 _17_ RTR  --- 1 message 32 [0 ffffffff 20 800] ------- [32:255 -1:255 32 0] 
r 0.090471123 _25_ RTR  --- 1 message 32 [0 ffffffff 20 800] ------- [32:255 -1:255 32 0] 
r 0.090471143 _43_ RTR  --- 1 message 32 [0 ffffffff 20 800] ------- [32:255 -1:255 32 0] 
r 0.090471145 _22_ RTR  --- 1 message 32 [0 ffffffff 20 800] ------- [32:255 -1:255 32 0] 
r 0.090471161 _24_ RTR  --- 1 message 32 [0 ffffffff 20 800] ------- [32:255 -1:255 32 0] 
r 0.090471167 _45_ RTR  --- 1 message 32 [0 ffffffff 20 800] ------- [32:255 -1:255 32 0] 
r 0.090471188 _15_ RTR  --- 1 message 32 [0 ffffffff 20 800] ------- [32:255 -1:255 32 0] 
r 0.090471191 _10_ RTR  --- 1 message 32 [0 ffffffff 20 800] ------- [32:255 -1:255 32 0] 
r 0.090471199 _53_ RTR  --- 1 message 32 [0 ffffffff 20 800] ------- [32:255 -1:255 32 0] 
r 0.090471212 _52_ RTR  --- 1 message 32 [0 ffffffff 20 800] ------- [32:255 -1:255 32 0] 
r 0.090471245 _4_ RTR  --- 1 message 32 [0 ffffffff 20 800] ------- [32:255 -1:255 32 0] 
s 0.114731232 _35_ RTR  --- 2 message 32 [0 0 0 0] ------- [35:255 -1:255 32 0] 
s 0.115384647 _38_ RTR  --- 3 message 32 [0 0 0 0] ------- [38:255 -1:255 32 0] 
r 0.117834768 _39_ RTR  --- 3 message 32 [0 ffffffff 26 800] ------- [38:255 -1:255 32 0] 
r 0.117834784 _34_ RTR  --- 3 message 32 [0 ffffffff 26 800] ------- [38:255 -1:255 32 0] 
r 0.117834821 _1_ RTR  --- 3 message 32 [0 ffffffff 26 800] ------- [38:255 -1:255 32 0] 
r 0.117834848 _9_ RTR  --- 3 message 32 [0 ffffffff 26 800] ------- [38:255 -1:255 32 0] 
r 0.117834851 _33_ RTR  --- 3 message 32 [0 ffffffff 26 800] ------- [38:255 -1:255 32 0] 
r 0.117834867 _51_ RTR  --- 3 message 32 [0 ffffffff 26 800] ------- [38:255 -1:255 32 0] 
r 0.117834902 _13_ RTR  --- 3 message 32 [0 ffffffff 26 800] ------- [38:255 -1:255 32 0] 
r 0.117834920 _49_ RTR  --- 3 message 32 [0 ffffffff 26 800] ------- [38:255 -1:255 32 0] 
r 0.117834931 _59_ RTR  --- 3 message 32 [0 ffffffff 26 800] ------- [38:255 -1:255 32 0] 
r 0.117834935 _7_ RTR  --- 3 message 32 [0 ffffffff 26 800] ------- [38:255 -1:255 32 0] 
r 0.117834940 _16_ RTR  --- 3 message 32 [0 ffffffff 26 800] ------- [38:255 -1:255 32 0] 
r 0.117835053 _29_ RTR  --- 3 message 32 [0 ffffffff 26 800] ------- [38:255 -1:255 32 0] 
r 0.117835146 _8_ RTR  --- 3 message 32 [0 ffffffff 26 800] ------- [38:255 -1:255 32 0] 
r 0.117835166 _12_ RTR  --- 3 message 32 [0 ffffffff 26 800] ------- [38:255 -1:255 32 0] 
r 0.117835180 _54_ RTR  --- 3 message 32 [0 ffffffff 26 800] ------- [38:255 -1:255 32 0] 
r 0.117835183 _35_ RTR  --- 3 message 32 [0 ffffffff 26 800] ------- [38:255 -1:255 32 0] 
r 0.117835223 _30_ RTR  --- 3 message 32 [0 ffffffff 26 800] ------- [38:255 -1:255 32 0] 
r 0.117835234 _11_ RTR  --- 3 message 32 [0 ffffffff 26 800] ------- [38:255 -1:255 32 0] 
r 0.117835321 _36_ RTR  --- 3 message 32 [0 ffffffff 26 800] ------- [38:255 -1:255 32 0] 
r 0.117835327 _48_ RTR  --- 3 message 32 [0 ffffffff 26 800] ------- [38:255 -1:255 32 0] 
r 0.117835341 _41_ RTR  --- 3 message 32 [0 ffffffff 26 800] ------- [38:255 -1:255 32 0] 
r 0.117835392 _55_ RTR  --- 3 message 32 [0 ffffffff 26 800] ------- [38:255 -1:255 32 0] 
r 0.117835477 _2_ RTR  --- 3 message 32 [0 ffffffff 26 800] ------- [38:255 -1:255 32 0] 
r 0.121149307 _8_ RTR  --- 2 message 32 [0 ffffffff 23 800] ------- [35:255 -1:255 32 0] 
r 0.121149363 _29_ RTR  --- 2 message 32 [0 ffffffff 23 800] ------- [35:255 -1:255 32 0] 
r 0.121149446 _55_ RTR  --- 2 message 32 [0 ffffffff 23 800] ------- [35:255 -1:255 32 0] 
r 0.121149455 _41_ RTR  --- 2 message 32 [0 ffffffff 23 800] ------- [35:255 -1:255 32 0] 
r 0.121149497 _12_ RTR  --- 2 message 32 [0 ffffffff 23 800] ------- [35:255 -1:255 32 0] 
r 0.121149509 _7_ RTR  --- 2 message 32 [0 ffffffff 23 800] ------- [35:255 -1:255 32 0] 
r 0.121149509 _49_ RTR  --- 2 message 32 [0 ffffffff 23 800] ------- [35:255 -1:255 32 0] 
r 0.121149643 _48_ RTR  --- 2 message 32 [0 ffffffff 23 800] ------- [35:255 -1:255 32 0] 
r 0.121149654 _54_ RTR  --- 2 message 32 [0 ffffffff 23 800] ------- [35:255 -1:255 32 0] 
r 0.121149664 _1_ RTR  --- 2 message 32 [0 ffffffff 23 800] ------- [35:255 -1:255 32 0] 
r 0.121149683 _58_ RTR  --- 2 message 32 [0 ffffffff 23 800] ------- [35:255 -1:255 32 0] 
r 0.121149684 _13_ RTR  --- 2 message 32 [0 ffffffff 23 800] ------- [35:255 -1:255 32 0] 
r 0.121149685 _9_ RTR  --- 2 message 32 [0 ffffffff 23 800] ------- [35:255 -1:255 32 0] 
r 0.121149686 _2_ RTR  --- 2 message 32 [0 ffffffff 23 800] ------- [35:255 -1:255 32 0] 
r 0.121149698 _37_ RTR  --- 2 message 32 [0 ffffffff 23 800] ------- [35:255 -1:255 32 0] 
r 0.121149724 _11_ RTR  --- 2 message 32 [0 ffffffff 23 800] ------- [35:255 -1:255 32 0] 
r 0.121149768 _38_ RTR  --- 2 message 32 [0 ffffffff 23 800] ------- [35:255 -1:255 32 0] 
r 0.121149784 _34_ RTR  --- 2 message 32 [0 ffffffff 23 800] ------- [35:255 -1:255 32 0] 
r 0.121149812 _5_ RTR  --- 2 message 32 [0 ffffffff 23 800] ------- [35:255 -1:255 32 0] 
r 0.121149819 _39_ RTR  --- 2 message 32 [0 ffffffff 23 800] ------- [35:255 -1:255 32 0] 
r 0.121149846 _51_ RTR  --- 2 message 32 [0 ffffffff 23 800] ------- [35:255 -1:255 32 0] 
r 0.121149970 _33_ RTR  --- 2 message 32 [0 ffffffff 23 800] ------- [35:255 -1:255 32 0] 
r 0.121150022 _53_ RTR  --- 2 message 32 [0 ffffffff 23 800] ------- [35:255 -1:255 32 0] 
r 0.121150039 _31_ RTR  --- 2 message 32 [0 ffffffff 23 800] ------- [35:255 -1:255 32 0] 
r 0.121150039 _56_ RTR  --- 2 message 32 [0 ffffffff 23 800] ------- [35:255 -1:255 32 0] 
r 0.121150049 _16_ RTR  --- 2 message 32 [0 ffffffff 23 800] ------- [35:255 -1:255 32 0] 
r 0.121150051 _59_ RTR  --- 2 message 32 [0 ffffffff 23 800] ------- [35:255 -1:255 32 0] 
r 0.121150060 _19_ RTR  --- 2 message 32 [0 ffffffff 23 800] ------- [35:255 -1:255 32 0] 
r 0.121150062 _43_ RTR  --- 2 message 32 [0 ffffffff 23 800] ------- [35:255 -1:255 32 0] 
s 0.142842670 _12_ RTR  --- 4 message 32 [0 0 0 0] ------- [12:255 -1:255 32 0] 
r 0.145932830 _54_ RTR  --- 4 message 32 [0 ffffffff c 800] ------- [12:255 -1:255 32 0] 
r 0.145932851 _48_ RTR  --- 4 message 32 [0 ffffffff c 800] ------- [12:255 -1:255 32 0] 
r 0.145932863 _8_ RTR  --- 4 message 32 [0 ffffffff c 800] ------- [12:255 -1:255 32 0] 
r 0.145932897 _11_ RTR  --- 4 message 32 [0 ffffffff c 800] ------- [12:255 -1:255 32 0] 
r 0.145932900 _41_ RTR  --- 4 message 32 [0 ffffffff c 800] ------- [12:255 -1:255 32 0] 
r 0.145932911 _7_ RTR  --- 4 message 32 [0 ffffffff c 800] ------- [12:255 -1:255 32 0] 
r 0.145932934 _35_ RTR  --- 4 message 32 [0 ffffffff c 800] ------- [12:255 -1:255 32 0] 
r 0.145932940 _29_ RTR  --- 4 message 32 [0 ffffffff c 800] ------- [12:255 -1:255 32 0] 
r 0.145932981 _2_ RTR  --- 4 message 32 [0 ffffffff c 800] ------- [12:255 -1:255 32 0] 
r 0.145932988 _13_ RTR  --- 4 message 32 [0 ffffffff c 800] ------- [12:255 -1:255 32 0] 
r 0.145933020 _9_ RTR  --- 4 message 32 [0 ffffffff c 800] ------- [12:255 -1:255 32 0] 
r 0.145933026 _55_ RTR  --- 4 message 32 [0 ffffffff c 800] ------- [12:255 -1:255 32 0] 
r 0.145933035 _49_ RTR  --- 4 message 32 [0 ffffffff c 800] ------- [12:255 -1:255 32 0] 
r 0.145933112 _37_ RTR  --- 4 message 32 [0 ffffffff c 800] ------- [12:255 -1:255 32 0] 
r 0.145933137 _34_ RTR  --- 4 message 32 [0 ffffffff c 800] ------- [12:255 -1:255 32 0] 
r 0.145933170 _1_ RTR  --- 4 message 32 [0 ffffffff c 800] ------- [12:255 -1:255 32 0] 
r 0.145933188 _38_ RTR  --- 4 message 32 [0 ffffffff c 800] ------- [12:255 -1:255 32 0] 
r 0.145933204 _53_ RTR  --- 4 message 32 [0 ffffffff c 800] ------- [12:255 -1:255 32 0] 
r 0.145933209 _58_ RTR  --- 4 message 32 [0 ffffffff c 800] ------- [12:255 -1:255 32 0] 
r 0.145933220 _5_ RTR  --- 4 message 32 [0 ffffffff c 800] ------- [12:255 -1:255 32 0] 
r 0.145933237 _43_ RTR  --- 4 message 32 [0 ffffffff c 800] ------- [12:255 -1:255 32 0] 
r 0.145933284 _39_ RTR  --- 4 message 32 [0 ffffffff c 800] ------- [12:255 -1:255 32 0] 
r 0.145933304 _27_ RTR  --- 4 message 32 [0 ffffffff c 800] ------- [12:255 -1:255 32 0] 
r 0.145933349 _51_ RTR  --- 4 message 32 [0 ffffffff c 800] ------- [12:255 -1:255 32 0] 
r 0.145933383 _33_ RTR  --- 4 message 32 [0 ffffffff c 800] ------- [12:255 -1:255 32 0] 
r 0.145933400 _17_ RTR  --- 4 message 32 [0 ffffffff c 800] ------- [12:255 -1:255 32 0] 
r 0.145933416 _56_ RTR  --- 4 message 32 [0 ffffffff c 800] ------- [12:255 -1:255 32 0] 
r 0.145933439 _59_ RTR  --- 4 message 32 [0 ffffffff c 800] ------- [12:255 -1:255 32 0] 
r 0.145933461 _30_ RTR  --- 4 message 32 [0 ffffffff c 800] ------- [12:255 -1:255 32 0] 
r 0.145933461 _47_ RTR  --- 4 message 32 [0 ffffffff c 800] ------- [12:255 -1:255 32 0] 
r 0.145933473 _57_ RTR  --- 4 message 32 [0 ffffffff c 800] ------- [12:255 -1:255 32 0] 
r 0.145933479 _16_ RTR  --- 4 message 32 [0 ffffffff c 800] ------- [12:255 -1:255 32 0] 
s 0.157558736 _33_ RTR  --- 6 message 32 [0 0 0 0] ------- [33:255 -1:255 32 0] 
s 0.158569442 _54_ RTR  --- 5 message 32 [0 0 0 0] ------- [54:255 -1:255 32 0] 
r 0.161659517 _11_ RTR  --- 5 message 32 [0 ffffffff 36 800] ------- [54:255 -1:255 32 0] 
r 0.161659602 _12_ RTR  --- 5 message 32 [0 ffffffff 36 800] ------- [54:255 -1:255 32 0] 
r 0.161659619 _48_ RTR  --- 5 message 32 [0 ffffffff 36 800] ------- [54:255 -1:255 32 0] 
r 0.161659728 _13_ RTR  --- 5 message 32 [0 ffffffff 36 800] ------- [54:255 -1:255 32 0] 
r 0.161659753 _7_ RTR  --- 5 message 32 [0 ffffffff 36 800] ------- [54:255 -1:255 32 0] 
r 0.161659778 _9_ RTR  --- 5 message 32 [0 ffffffff 36 800] ------- [54:255 -1:255 32 0] 
r 0.161659790 _8_ RTR  --- 5 message 32 [0 ffffffff 36 800] ------- [54:255 -1:255 32 0] 
r 0.161659795 _2_ RTR  --- 5 message 32 [0 ffffffff 36 800] ------- [54:255 -1:255 32 0] 
r 0.161659812 _41_ RTR  --- 5 message 32 [0 ffffffff 36 800] ------- [54:255 -1:255 32 0] 
r 0.161659845 _29_ RTR  --- 5 message 32 [0 ffffffff 36 800] ------- [54:255 -1:255 32 0] 
r 0.161659853 _53_ RTR  --- 5 message 32 [0 ffffffff 36 800] ------- [54:255 -1:255 32 0] 
r 0.161659864 _35_ RTR  --- 5 message 32 [0 ffffffff 36 800] ------- [54:255 -1:255 32 0] 
r 0.161659867 _43_ RTR  --- 5 message 32 [0 ffffffff 36 800] ------- [54:255 -1:255 32 0] 
r 0.161659885 _34_ RTR  --- 5 message 32 [0 ffffffff 36 800] ------- [54:255 -1:255 32 0] 
r 0.161659901 _49_ RTR  --- 5 message 32 [0 ffffffff 36 800] ------- [54:255 -1:255 32 0] 
r 0.161659951 _55_ RTR  --- 5 message 32 [0 ffffffff 36 800] ------- [54:255 -1:255 32 0] 
r 0.161659975 _38_ RTR  --- 5 message 32 [0 ffffffff 36 800] ------- [54:255 -1:255 32 0] 
r 0.161659977 _37_ RTR  --- 5 message 32 [0 ffffffff 36 800] ------- [54:255 -1:255 32 0] 
r 0.161660007 _1_ RTR  --- 5 message 32 [0 ffffffff 36 800] ------- [54:255 -1:255 32 0] 
r 0.161660009 _27_ RTR  --- 5 message 32 [0 ffffffff 36 800] ------- [54:255 -1:255 32 0] 
r 0.161660012 _17_ RTR  --- 5 message 32 [0 ffffffff 36 800] ------- [54:255 -1:255 32 0] 
r 0.161660070 _5_ RTR  --- 5 message 32 [0 ffffffff 36 800] ------- [54:255 -1:255 32 0] 
r 0.161660087 _39_ RTR  --- 5 message 32 [0 ffffffff 36 800] ------- [54:255 -1:255 32 0] 
r 0.161660111 _58_ RTR  --- 5 message 32 [0 ffffffff 36 800] ------- [54:255 -1:255 32 0] 
r 0.161660117 _30_ RTR  --- 5 message 32 [0 ffffffff 36 800] ------- [54:255 -1:255 32 0] 
r 0.161660126 _0_ RTR  --- 5 message 32 [0 ffffffff 36 800] ------- [54:255 -1:255 32 0] 
r 0.161660140 _3_ RTR  --- 5 message 32 [0 ffffffff 36 800] ------- [54:255 -1:255 32 0] 
r 0.161660148 _33_ RTR  --- 5 message 32 [0 ffffffff 36 800] ------- [54:255 -1:255 32 0] 
r 0.161660168 _51_ RTR  --- 5 message 32 [0 ffffffff 36 800] ------- [54:255 -1:255 32 0] 
r 0.161660183 _59_ RTR  --- 5 message 32 [0 ffffffff 36 800] ------- [54:255 -1:255 32 0] 
r 0.161660190 _36_ RTR  --- 5 message 32 [0 ffffffff 36 800] ------- [54:255 -1:255 32 0] 
r 0.161660236 _47_ RTR  --- 5 message 32 [0 ffffffff 36 800] ------- [54:255 -1:255 32 0] 
r 0.161660236 _56_ RTR  --- 5 message 32 [0 ffffffff 36 800] ------- [54:255 -1:255 32 0] 
r 0.161660247 _16_ RTR  --- 5 message 32 [0 ffffffff 36 800] ------- [54:255 -1:255 32 0] 
r 0.161660255 _57_ RTR  --- 5 message 32 [0 ffffffff 36 800] ------- [54:255 -1:255 32 0] 
r 0.161660274 _42_ RTR  --- 5 message 32 [0 ffffffff 36 800] ------- [54:255 -1:255 32 0] 
r 0.161660274 _21_ RTR  --- 5 message 32 [0 ffffffff 36 800] ------- [54:255 -1:255 32 0] 
r 0.164616836 _16_ RTR  --- 6 message 32 [0 ffffffff 21 800] ------- [33:255 -1:255 32 0] 
r 0.164616837 _59_ RTR  --- 6 message 32 [0 ffffffff 21 800] ------- [33:255 -1:255 32 0] 
r 0.164616916 _39_ RTR  --- 6 message 32 [0 ffffffff 21 800] ------- [33:255 -1:255 32 0] 
r 0.164616939 _38_ RTR  --- 6 message 32 [0 ffffffff 21 800] ------- [33:255 -1:255 32 0] 
r 0.164616981 _51_ RTR  --- 6 message 32 [0 ffffffff 21 800] ------- [33:255 -1:255 32 0] 
r 0.164617000 _34_ RTR  --- 6 message 32 [0 ffffffff 21 800] ------- [33:255 -1:255 32 0] 
r 0.164617071 _1_ RTR  --- 6 message 32 [0 ffffffff 21 800] ------- [33:255 -1:255 32 0] 
r 0.164617108 _9_ RTR  --- 6 message 32 [0 ffffffff 21 800] ------- [33:255 -1:255 32 0] 
r 0.164617155 _13_ RTR  --- 6 message 32 [0 ffffffff 21 800] ------- [33:255 -1:255 32 0] 
r 0.164617203 _49_ RTR  --- 6 message 32 [0 ffffffff 21 800] ------- [33:255 -1:255 32 0] 
r 0.164617226 _7_ RTR  --- 6 message 32 [0 ffffffff 21 800] ------- [33:255 -1:255 32 0] 
r 0.164617269 _30_ RTR  --- 6 message 32 [0 ffffffff 21 800] ------- [33:255 -1:255 32 0] 
r 0.164617343 _29_ RTR  --- 6 message 32 [0 ffffffff 21 800] ------- [33:255 -1:255 32 0] 
r 0.164617360 _36_ RTR  --- 6 message 32 [0 ffffffff 21 800] ------- [33:255 -1:255 32 0] 
r 0.164617438 _8_ RTR  --- 6 message 32 [0 ffffffff 21 800] ------- [33:255 -1:255 32 0] 
r 0.164617442 _54_ RTR  --- 6 message 32 [0 ffffffff 21 800] ------- [33:255 -1:255 32 0] 
r 0.164617450 _12_ RTR  --- 6 message 32 [0 ffffffff 21 800] ------- [33:255 -1:255 32 0] 
r 0.164617473 _35_ RTR  --- 6 message 32 [0 ffffffff 21 800] ------- [33:255 -1:255 32 0] 
r 0.164617486 _11_ RTR  --- 6 message 32 [0 ffffffff 21 800] ------- [33:255 -1:255 32 0] 
s 0.240328613 _34_ RTR  --- 7 message 32 [0 0 0 0] ------- [34:255 -1:255 32 0] 
r 0.243418730 _9_ RTR  --- 7 message 32 [0 ffffffff 22 800] ------- [34:255 -1:255 32 0] 
r 0.243418750 _38_ RTR  --- 7 message 32 [0 ffffffff 22 800] ------- [34:255 -1:255 32 0] 
r 0.243418770 _13_ RTR  --- 7 message 32 [0 ffffffff 22 800] ------- [34:255 -1:255 32 0] 
r 0.243418867 _39_ RTR  --- 7 message 32 [0 ffffffff 22 800] ------- [34:255 -1:255 32 0] 
r 0.243418877 _33_ RTR  --- 7 message 32 [0 ffffffff 22 800] ------- [34:255 -1:255 32 0] 
r 0.243418890 _7_ RTR  --- 7 message 32 [0 ffffffff 22 800] ------- [34:255 -1:255 32 0] 
r 0.243418900 _1_ RTR  --- 7 message 32 [0 ffffffff 22 800] ------- [34:255 -1:255 32 0] 
r 0.243418917 _59_ RTR  --- 7 message 32 [0 ffffffff 22 800] ------- [34:255 -1:255 32 0] 
r 0.243418944 _49_ RTR  --- 7 message 32 [0 ffffffff 22 800] ------- [34:255 -1:255 32 0] 
r 0.243418968 _51_ RTR  --- 7 message 32 [0 ffffffff 22 800] ------- [34:255 -1:255 32 0] 
r 0.243418977 _16_ RTR  --- 7 message 32 [0 ffffffff 22 800] ------- [34:255 -1:255 32 0] 
r 0.243419045 _29_ RTR  --- 7 message 32 [0 ffffffff 22 800] ------- [34:255 -1:255 32 0] 
r 0.243419056 _54_ RTR  --- 7 message 32 [0 ffffffff 22 800] ------- [34:255 -1:255 32 0] 
r 0.243419078 _30_ RTR  --- 7 message 32 [0 ffffffff 22 800] ------- [34:255 -1:255 32 0] 
r 0.243419080 _12_ RTR  --- 7 message 32 [0 ffffffff 22 800] ------- [34:255 -1:255 32 0] 
r 0.243419100 _11_ RTR  --- 7 message 32 [0 ffffffff 22 800] ------- [34:255 -1:255 32 0] 
r 0.243419112 _8_ RTR  --- 7 message 32 [0 ffffffff 22 800] ------- [34:255 -1:255 32 0] 
r 0.243419165 _35_ RTR  --- 7 message 32 [0 ffffffff 22 800] ------- [34:255 -1:255 32 0] 
r 0.243419177 _36_ RTR  --- 7 message 32 [0 ffffffff 22 800] ------- [34:255 -1:255 32 0] 
r 0.243419219 _48_ RTR  --- 7 message 32 [0 ffffffff 22 800] ------- [34:255 -1:255 32 0] 
r 0.243419284 _41_ RTR  --- 7 message 32 [0 ffffffff 22 800] ------- [34:255 -1:255 32 0] 
r 0.243419322 _17_ RTR  --- 7 message 32 [0 ffffffff 22 800] ------- [34:255 -1:255 32 0] 
r 0.243419361 _55_ RTR  --- 7 message 32 [0 ffffffff 22 800] ------- [34:255 -1:255 32 0] 
r 0.243419377 _43_ RTR  --- 7 message 32 [0 ffffffff 22 800] ------- [34:255 -1:255 32 0] 
r 0.243419382 _2_ RTR  --- 7 message 32 [0 ffffffff 22 800] ------- [34:255 -1:255 32 0] 
r 0.243419411 _53_ RTR  --- 7 message 32 [0 ffffffff 22 800] ------- [34:255 -1:255 32 0] 
s 0.260987120 _46_ RTR  --- 8 message 32 [0 0 0 0] ------- [46:255 -1:255 32 0] 
r 0.265677253 _44_ RTR  --- 8 message 32 [0 ffffffff 2e 800] ------- [46:255 -1:255 32 0] 
r 0.265677343 _23_ RTR  --- 8 message 32 [0 ffffffff 2e 800] ------- [46:255 -1:255 32 0] 
r 0.265677378 _25_ RTR  --- 8 message 32 [0 ffffffff 2e 800] ------- [46:255 -1:255 32 0] 
r 0.265677429 _40_ RTR  --- 8 message 32 [0 ffffffff 2e 800] ------- [46:255 -1:255 32 0] 
r 0.265677457 _26_ RTR  --- 8 message 32 [0 ffffffff 2e 800] ------- [46:255 -1:255 32 0] 
r 0.265677501 _14_ RTR  --- 8 message 32 [0 ffffffff 2e 800] ------- [46:255 -1:255 32 0] 
r 0.265677518 _15_ RTR  --- 8 message 32 [0 ffffffff 2e 800] ------- [46:255 -1:255 32 0] 
r 0.265677523 _24_ RTR  --- 8 message 32 [0 ffffffff 2e 800] ------- [46:255 -1:255 32 0] 
r 0.265677546 _4_ RTR  --- 8 message 32 [0 ffffffff 2e 800] ------- [46:255 -1:255 32 0] 
r 0.265677555 _28_ RTR  --- 8 message 32 [0 ffffffff 2e 800] ------- [46:255 -1:255 32 0] 
r 0.265677560 _32_ RTR  --- 8 message 32 [0 ffffffff 2e 800] ------- [46:255 -1:255 32 0] 
r 0.265677572 _6_ RTR  --- 8 message 32 [0 ffffffff 2e 800] ------- [46:255 -1:255 32 0] 
r 0.265677580 _18_ RTR  --- 8 message 32 [0 ffffffff 2e 800] ------- [46:255 -1:255 32 0] 
r 0.265677624 _3_ RTR  --- 8 message 32 [0 ffffffff 2e 800] ------- [46:255 -1:255 32 0] 
r 0.265677783 _0_ RTR  --- 8 message 32 [0 ffffffff 2e 800] ------- [46:255 -1:255 32 0] 
r 0.265677808 _27_ RTR  --- 8 message 32 [0 ffffffff 2e 800] ------- [46:255 -1:255 32 0] 
r 0.265677857 _53_ RTR  --- 8 message 32 [0 ffffffff 2e 800] ------- [46:255 -1:255 32 0] 
r 0.265677859 _20_ RTR  --- 8 message 32 [0 ffffffff 2e 800] ------- [46:255 -1:255 32 0] 
r 0.265677862 _43_ RTR  --- 8 message 32 [0 ffffffff 2e 800] ------- [46:255 -1:255 32 0] 
r 0.265677874 _50_ RTR  --- 8 message 32 [0 ffffffff 2e 800] ------- [46:255 -1:255 32 0] 
r 0.265677918 _42_ RTR  --- 8 message 32 [0 ffffffff 2e 800] ------- [46:255 -1:255 32 0] 
s 0.306641675 _8_ RTR  --- 9 message 32 [0 0 0 0] ------- [8:255 -1:255 32 0] 
r 0.310371750 _35_ RTR  --- 9 message 32 [0 ffffffff 8 800] ------- [8:255 -1:255 32 0] 
r 0.310371793 _29_ RTR  --- 9 message 32 [0 ffffffff 8 800] ------- [8:255 -1:255 32 0] 
r 0.310371868 _12_ RTR  --- 9 message 32 [0 ffffffff 8 800] ------- [8:255 -1:255 32 0] 
r 0.310371885 _41_ RTR  --- 9 message 32 [0 ffffffff 8 800] ------- [8:255 -1:255 32 0] 
r 0.310371897 _7_ RTR  --- 9 message 32 [0 ffffffff 8 800] ------- [8:255 -1:255 32 0] 
r 0.310371925 _55_ RTR  --- 9 message 32 [0 ffffffff 8 800] ------- [8:255 -1:255 32 0] 
r 0.310371935 _49_ RTR  --- 9 message 32 [0 ffffffff 8 800] ------- [8:255 -1:255 32 0] 
r 0.310372023 _54_ RTR  --- 9 message 32 [0 ffffffff 8 800] ------- [8:255 -1:255 32 0] 
r 0.310372026 _48_ RTR  --- 9 message 32 [0 ffffffff 8 800] ------- [8:255 -1:255 32 0] 
r 0.310372062 _13_ RTR  --- 9 message 32 [0 ffffffff 8 800] ------- [8:255 -1:255 32 0] 
r 0.310372068 _9_ RTR  --- 9 message 32 [0 ffffffff 8 800] ------- [8:255 -1:255 32 0] 
r 0.310372091 _1_ RTR  --- 9 message 32 [0 ffffffff 8 800] ------- [8:255 -1:255 32 0] 
r 0.310372092 _2_ RTR  --- 9 message 32 [0 ffffffff 8 800] ------- [8:255 -1:255 32 0] 
r 0.310372094 _11_ RTR  --- 9 message 32 [0 ffffffff 8 800] ------- [8:255 -1:255 32 0] 
r 0.310372138 _37_ RTR  --- 9 message 32 [0 ffffffff 8 800] ------- [8:255 -1:255 32 0] 
r 0.310372155 _58_ RTR  --- 9 message 32 [0 ffffffff 8 800] ------- [8:255 -1:255 32 0] 
r 0.310372173 _38_ RTR  --- 9 message 32 [0 ffffffff 8 800] ------- [8:255 -1:255 32 0] 
r 0.310372174 _34_ RTR  --- 9 message 32 [0 ffffffff 8 800] ------- [8:255 -1:255 32 0] 
r 0.310372238 _39_ RTR  --- 9 message 32 [0 ffffffff 8 800] ------- [8:255 -1:255 32 0] 
r 0.310372254 _5_ RTR  --- 9 message 32 [0 ffffffff 8 800] ------- [8:255 -1:255 32 0] 
r 0.310372276 _51_ RTR  --- 9 message 32 [0 ffffffff 8 800] ------- [8:255 -1:255 32 0] 
r 0.310372377 _33_ RTR  --- 9 message 32 [0 ffffffff 8 800] ------- [8:255 -1:255 32 0] 
r 0.310372399 _53_ RTR  --- 9 message 32 [0 ffffffff 8 800] ------- [8:255 -1:255 32 0] 
r 0.310372435 _43_ RTR  --- 9 message 32 [0 ffffffff 8 800] ------- [8:255 -1:255 32 0] 
r 0.310372452 _59_ RTR  --- 9 message 32 [0 ffffffff 8 800] ------- [8:255 -1:255 32 0] 
r 0.310372461 _16_ RTR  --- 9 message 32 [0 ffffffff 8 800] ------- [8:255 -1:255 32 0] 
r 0.310372472 _27_ RTR  --- 9 message 32 [0 ffffffff 8 800] ------- [8:255 -1:255 32 0] 
r 0.310372475 _56_ RTR  --- 9 message 32 [0 ffffffff 8 800] ------- [8:255 -1:255 32 0] 
s 0.322016779 _58_ RTR  --- 10 message 32 [0 0 0 0] ------- [58:255 -1:255 32 0] 
r 0.326706986 _37_ RTR  --- 10 message 32 [0 ffffffff 3a 800] ------- [58:255 -1:255 32 0] 
r 0.326707016 _55_ RTR  --- 10 message 32 [0 ffffffff 3a 800] ------- [58:255 -1:255 32 0] 
r 0.326707030 _5_ RTR  --- 10 message 32 [0 ffffffff 3a 800] ------- [58:255 -1:255 32 0] 
r 0.326707089 _41_ RTR  --- 10 message 32 [0 ffffffff 3a 800] ------- [58:255 -1:255 32 0] 
r 0.326707140 _31_ RTR  --- 10 message 32 [0 ffffffff 3a 800] ------- [58:255 -1:255 32 0] 
r 0.326707158 _19_ RTR  --- 10 message 32 [0 ffffffff 3a 800] ------- [58:255 -1:255 32 0] 
r 0.326707180 _2_ RTR  --- 10 message 32 [0 ffffffff 3a 800] ------- [58:255 -1:255 32 0] 
r 0.326707229 _35_ RTR  --- 10 message 32 [0 ffffffff 3a 800] ------- [58:255 -1:255 32 0] 
r 0.326707234 _56_ RTR  --- 10 message 32 [0 ffffffff 3a 800] ------- [58:255 -1:255 32 0] 
r 0.326707259 _8_ RTR  --- 10 message 32 [0 ffffffff 3a 800] ------- [58:255 -1:255 32 0] 
r 0.326707307 _48_ RTR  --- 10 message 32 [0 ffffffff 3a 800] ------- [58:255 -1:255 32 0] 
r 0.326707319 _12_ RTR  --- 10 message 32 [0 ffffffff 3a 800] ------- [58:255 -1:255 32 0] 
r 0.326707359 _29_ RTR  --- 10 message 32 [0 ffffffff 3a 800] ------- [58:255 -1:255 32 0] 
r 0.326707404 _57_ RTR  --- 10 message 32 [0 ffffffff 3a 800] ------- [58:255 -1:255 32 0] 
r 0.326707421 _47_ RTR  --- 10 message 32 [0 ffffffff 3a 800] ------- [58:255 -1:255 32 0] 
r 0.326707448 _54_ RTR  --- 10 message 32 [0 ffffffff 3a 800] ------- [58:255 -1:255 32 0] 
r 0.326707474 _21_ RTR  --- 10 message 32 [0 ffffffff 3a 800] ------- [58:255 -1:255 32 0] 
r 0.326707478 _7_ RTR  --- 10 message 32 [0 ffffffff 3a 800] ------- [58:255 -1:255 32 0] 
r 0.326707484 _11_ RTR  --- 10 message 32 [0 ffffffff 3a 800] ------- [58:255 -1:255 32 0] 
r 0.326707506 _49_ RTR  --- 10 message 32 [0 ffffffff 3a 800] ------- [58:255 -1:255 32 0] 
r 0.326707541 _27_ RTR  --- 10 message 32 [0 ffffffff 3a 800] ------- [58:255 -1:255 32 0] 
r 0.326707580 _20_ RTR  --- 10 message 32 [0 ffffffff 3a 800] ------- [58:255 -1:255 32 0] 
s 0.329147638 _23_ RTR  --- 11 message 32 [0 0 0 0] ------- [23:255 -1:255 32 0] 
r 0.331917753 _26_ RTR  --- 11 message 32 [0 ffffffff 17 800] ------- [23:255 -1:255 32 0] 
r 0.331917861 _32_ RTR  --- 11 message 32 [0 ffffffff 17 800] ------- [23:255 -1:255 32 0] 
r 0.331917861 _46_ RTR  --- 11 message 32 [0 ffffffff 17 800] ------- [23:255 -1:255 32 0] 
r 0.331917871 _6_ RTR  --- 11 message 32 [0 ffffffff 17 800] ------- [23:255 -1:255 32 0] 
r 0.331917882 _14_ RTR  --- 11 message 32 [0 ffffffff 17 800] ------- [23:255 -1:255 32 0] 
r 0.331917995 _44_ RTR  --- 11 message 32 [0 ffffffff 17 800] ------- [23:255 -1:255 32 0] 
r 0.331918026 _3_ RTR  --- 11 message 32 [0 ffffffff 17 800] ------- [23:255 -1:255 32 0] 
r 0.331918095 _40_ RTR  --- 11 message 32 [0 ffffffff 17 800] ------- [23:255 -1:255 32 0] 
r 0.331918119 _25_ RTR  --- 11 message 32 [0 ffffffff 17 800] ------- [23:255 -1:255 32 0] 
r 0.331918136 _0_ RTR  --- 11 message 32 [0 ffffffff 17 800] ------- [23:255 -1:255 32 0] 
r 0.331918166 _24_ RTR  --- 11 message 32 [0 ffffffff 17 800] ------- [23:255 -1:255 32 0] 
r 0.331918168 _50_ RTR  --- 11 message 32 [0 ffffffff 17 800] ------- [23:255 -1:255 32 0] 
r 0.331918186 _15_ RTR  --- 11 message 32 [0 ffffffff 17 800] ------- [23:255 -1:255 32 0] 
r 0.331918233 _42_ RTR  --- 11 message 32 [0 ffffffff 17 800] ------- [23:255 -1:255 32 0] 
r 0.331918238 _4_ RTR  --- 11 message 32 [0 ffffffff 17 800] ------- [23:255 -1:255 32 0] 
r 0.331918259 _18_ RTR  --- 11 message 32 [0 ffffffff 17 800] ------- [23:255 -1:255 32 0] 
r 0.331918283 _28_ RTR  --- 11 message 32 [0 ffffffff 17 800] ------- [23:255 -1:255 32 0] 
r 0.331918296 _43_ RTR  --- 11 message 32 [0 ffffffff 17 800] ------- [23:255 -1:255 32 0] 
r 0.331918323 _53_ RTR  --- 11 message 32 [0 ffffffff 17 800] ------- [23:255 -1:255 32 0] 
r 0.331918357 _27_ RTR  --- 11 message 32 [0 ffffffff 17 800] ------- [23:255 -1:255 32 0] 
r 0.331918364 _17_ RTR  --- 11 message 32 [0 ffffffff 17 800] ------- [23:255 -1:255 32 0] 
s 0.337511725 _30_ RTR  --- 12 message 32 [0 0 0 0] ------- [30:255 -1:255 32 0] 
r 0.342201823 _36_ RTR  --- 12 message 32 [0 ffffffff 1e 800] ------- [30:255 -1:255 32 0] 
r 0.342202189 _59_ RTR  --- 12 message 32 [0 ffffffff 1e 800] ------- [30:255 -1:255 32 0] 
r 0.342202190 _34_ RTR  --- 12 message 32 [0 ffffffff 1e 800] ------- [30:255 -1:255 32 0] 
r 0.342202209 _17_ RTR  --- 12 message 32 [0 ffffffff 1e 800] ------- [30:255 -1:255 32 0] 
r 0.342202244 _13_ RTR  --- 12 message 32 [0 ffffffff 1e 800] ------- [30:255 -1:255 32 0] 
r 0.342202253 _9_ RTR  --- 12 message 32 [0 ffffffff 1e 800] ------- [30:255 -1:255 32 0] 
r 0.342202258 _33_ RTR  --- 12 message 32 [0 ffffffff 1e 800] ------- [30:255 -1:255 32 0] 
r 0.342202292 _52_ RTR  --- 12 message 32 [0 ffffffff 1e 800] ------- [30:255 -1:255 32 0] 
r 0.342202301 _38_ RTR  --- 12 message 32 [0 ffffffff 1e 800] ------- [30:255 -1:255 32 0] 
r 0.342202317 _16_ RTR  --- 12 message 32 [0 ffffffff 1e 800] ------- [30:255 -1:255 32 0] 
r 0.342202377 _42_ RTR  --- 12 message 32 [0 ffffffff 1e 800] ------- [30:255 -1:255 32 0] 
r 0.342202384 _39_ RTR  --- 12 message 32 [0 ffffffff 1e 800] ------- [30:255 -1:255 32 0] 
r 0.342202390 _11_ RTR  --- 12 message 32 [0 ffffffff 1e 800] ------- [30:255 -1:255 32 0] 
r 0.342202400 _54_ RTR  --- 12 message 32 [0 ffffffff 1e 800] ------- [30:255 -1:255 32 0] 
r 0.342202402 _22_ RTR  --- 12 message 32 [0 ffffffff 1e 800] ------- [30:255 -1:255 32 0] 
r 0.342202425 _7_ RTR  --- 12 message 32 [0 ffffffff 1e 800] ------- [30:255 -1:255 32 0] 
r 0.342202435 _0_ RTR  --- 12 message 32 [0 ffffffff 1e 800] ------- [30:255 -1:255 32 0] 
r 0.342202459 _43_ RTR  --- 12 message 32 [0 ffffffff 1e 800] ------- [30:255 -1:255 32 0] 
r 0.342202471 _1_ RTR  --- 12 message 32 [0 ffffffff 1e 800] ------- [30:255 -1:255 32 0] 
r 0.342202479 _51_ RTR  --- 12 message 32 [0 ffffffff 1e 800] ------- [30:255 -1:255 32 0] 
r 0.342202481 _10_ RTR  --- 12 message 32 [0 ffffffff 1e 800] ------- [30:255 -1:255 32 0] 
r 0.342202516 _12_ RTR  --- 12 message 32 [0 ffffffff 1e 800] ------- [30:255 -1:255 32 0] 
r 0.342202516 _49_ RTR  --- 12 message 32 [0 ffffffff 1e 800] ------- [30:255 -1:255 32 0] 
r 0.342202537 _45_ RTR  --- 12 message 32 [0 ffffffff 1e 800] ------- [30:255 -1:255 32 0] 
r 0.342202545 _53_ RTR  --- 12 message 32 [0 ffffffff 1e 800] ------- [30:255 -1:255 32 0] 
s 0.391615002 _31_ RTR  --- 13 message 32 [0 0 0 0] ------- [31:255 -1:255 32 0] 
r 0.394705046 _19_ RTR  --- 13 message 32 [0 ffffffff 1f 800] ------- [31:255 -1:255 32 0] 