s 0.037396671 _1_ RTR  --- 0 message 32 [0 0 0 0] ------- [1:255 -1:255 32 0] 
r 0.040166834 _39_ RTR  --- 0 message 32 [0 ffffffff 1 800] ------- [1:255 -1:255 32 0] 
r 0.040166845 _38_ RTR  --- 0 message 32 [0 ffffffff 1 800] ------- [1:255 -1:255 32 0] 
r 0.040166933 _7_ RTR  --- 0 message 32 [0 ffffffff 1 800] ------- [1:255 -1:255 32 0] 
r 0.040166958 _34_ RTR  --- 0 message 32 [0 ffffffff 1 800] ------- [1:255 -1:255 32 0] 
r 0.040166960 _9_ RTR  --- 0 message 32 [0 ffffffff 1 800] ------- [1:255 -1:255 32 0] 
r 0.040166975 _29_ RTR  --- 0 message 32 [0 ffffffff 1 800] ------- [1:255 -1:255 32 0] 
r 0.040167007 _33_ RTR  --- 0 message 32 [0 ffffffff 1 800] ------- [1:255 -1:255 32 0] 
r 0.040167009 _13_ RTR  --- 0 message 32 [0 ffffffff 1 800] ------- [1:255 -1:255 32 0] 
r 0.040167069 _16_ RTR  --- 0 message 32 [0 ffffffff 1 800] ------- [1:255 -1:255 32 0] 
r 0.040167088 _8_ RTR  --- 0 message 32 [0 ffffffff 1 800] ------- [1:255 -1:255 32 0] 
r 0.040167103 _35_ RTR  --- 0 message 32 [0 ffffffff 1 800] ------- [1:255 -1:255 32 0] 
r 0.040167172 _12_ RTR  --- 0 message 32 [0 ffffffff 1 800] ------- [1:255 -1:255 32 0] 
r 0.040167304 _11_ RTR  --- 0 message 32 [0 ffffffff 1 800] ------- [1:255 -1:255 32 0] 
r 0.040167417 _30_ RTR  --- 0 message 32 [0 ffffffff 1 800] ------- [1:255 -1:255 32 0] 
r 0.040167475 _2_ RTR  --- 0 message 32 [0 ffffffff 1 800] ------- [1:255 -1:255 32 0] 
s 0.088725386 _21_ RTR  --- 1 message 32 [0 0 0 0] ------- [21:255 -1:255 32 0] 
r 0.091815507 _20_ RTR  --- 1 message 32 [0 ffffffff 15 800] ------- [21:255 -1:255 32 0] 
r 0.091815757 _27_ RTR  --- 1 message 32 [0 ffffffff 15 800] ------- [21:255 -1:255 32 0] 
r 0.091815809 _18_ RTR  --- 1 message 32 [0 ffffffff 15 800] ------- [21:255 -1:255 32 0] 
r 0.091815832 _5_ RTR  --- 1 message 32 [0 ffffffff 15 800] ------- [21:255 -1:255 32 0] 
r 0.091815841 _24_ RTR  --- 1 message 32 [0 ffffffff 15 800] ------- [21:255 -1:255 32 0] 
r 0.091815852 _15_ RTR  --- 1 message 32 [0 ffffffff 15 800] ------- [21:255 -1:255 32 0] 
r 0.091815861 _4_ RTR  --- 1 message 32 [0 ffffffff 15 800] ------- [21:255 -1:255 32 0] 
r 0.091815917 _2_ RTR  --- 1 message 32 [0 ffffffff 15 800] ------- [21:255 -1:255 32 0] 
r 0.091815918 _37_ RTR  --- 1 message 32 [0 ffffffff 15 800] ------- [21:255 -1:255 32 0] 
r 0.091815991 _28_ RTR  --- 1 message 32 [0 ffffffff 15 800] ------- [21:255 -1:255 32 0] 
r 0.091816078 _19_ RTR  --- 1 message 32 [0 ffffffff 15 800] ------- [21:255 -1:255 32 0] 
r 0.091816111 _31_ RTR  --- 1 message 32 [0 ffffffff 15 800] ------- [21:255 -1:255 32 0] 
r 0.091816161 _25_ RTR  --- 1 message 32 [0 ffffffff 15 800] ------- [21:255 -1:255 32 0] 
r 0.091816187 _11_ RTR  --- 1 message 32 [0 ffffffff 15 800] ------- [21:255 -1:255 32 0] 
r 0.091816191 _3_ RTR  --- 1 message 32 [0 ffffffff 15 800] ------- [21:255 -1:255 32 0] 
s 0.124693709 _26_ RTR  --- 2 message 32 [0 0 0 0] ------- [26:255 -1:255 32 0] 
r 0.129383825 _23_ RTR  --- 2 message 32 [0 ffffffff 1a 800] ------- [26:255 -1:255 32 0] 
r 0.129383851 _32_ RTR  --- 2 message 32 [0 ffffffff 1a 800] ------- [26:255 -1:255 32 0] 
r 0.129383855 _6_ RTR  --- 2 message 32 [0 ffffffff 1a 800] ------- [26:255 -1:255 32 0] 
r 0.129383914 _14_ RTR  --- 2 message 32 [0 ffffffff 1a 800] ------- [26:255 -1:255 32 0] 
r 0.129384050 _3_ RTR  --- 2 message 32 [0 ffffffff 1a 800] ------- [26:255 -1:255 32 0] 
r 0.129384120 _0_ RTR  --- 2 message 32 [0 ffffffff 1a 800] ------- [26:255 -1:255 32 0] 
r 0.129384303 _25_ RTR  --- 2 message 32 [0 ffffffff 1a 800] ------- [26:255 -1:255 32 0] 
r 0.129384305 _24_ RTR  --- 2 message 32 [0 ffffffff 1a 800] ------- [26:255 -1:255 32 0] 
r 0.129384334 _15_ RTR  --- 2 message 32 [0 ffffffff 1a 800] ------- [26:255 -1:255 32 0] 
r 0.129384344 _17_ RTR  --- 2 message 32 [0 ffffffff 1a 800] ------- [26:255 -1:255 32 0] 
r 0.129384395 _4_ RTR  --- 2 message 32 [0 ffffffff 1a 800] ------- [26:255 -1:255 32 0] 
r 0.129384409 _18_ RTR  --- 2 message 32 [0 ffffffff 1a 800] ------- [26:255 -1:255 32 0] 
r 0.129384444 _27_ RTR  --- 2 message 32 [0 ffffffff 1a 800] ------- [26:255 -1:255 32 0] 
r 0.129384456 _28_ RTR  --- 2 message 32 [0 ffffffff 1a 800] ------- [26:255 -1:255 32 0] 
r 0.129384496 _22_ RTR  --- 2 message 32 [0 ffffffff 1a 800] ------- [26:255 -1:255 32 0] 
s 0.136474986 _18_ RTR  --- 3 message 32 [0 0 0 0] ------- [18:255 -1:255 32 0] 
r 0.139245041 _4_ RTR  --- 3 message 32 [0 ffffffff 12 800] ------- [18:255 -1:255 32 0] 
r 0.139245062 _15_ RTR  --- 3 message 32 [0 ffffffff 12 800] ------- [18:255 -1:255 32 0] 
r 0.139245112 _24_ RTR  --- 3 message 32 [0 ffffffff 12 800] ------- [18:255 -1:255 32 0] 
r 0.139245206 _28_ RTR  --- 3 message 32 [0 ffffffff 12 800] ------- [18:255 -1:255 32 0] 
r 0.139245287 _20_ RTR  --- 3 message 32 [0 ffffffff 12 800] ------- [18:255 -1:255 32 0] 
r 0.139245339 _25_ RTR  --- 3 message 32 [0 ffffffff 12 800] ------- [18:255 -1:255 32 0] 
r 0.139245409 _21_ RTR  --- 3 message 32 [0 ffffffff 12 800] ------- [18:255 -1:255 32 0] 
r 0.139245417 _27_ RTR  --- 3 message 32 [0 ffffffff 12 800] ------- [18:255 -1:255 32 0] 
r 0.139245582 _14_ RTR  --- 3 message 32 [0 ffffffff 12 800] ------- [18:255 -1:255 32 0] 
r 0.139245606 _3_ RTR  --- 3 message 32 [0 ffffffff 12 800] ------- [18:255 -1:255 32 0] 
r 0.139245607 _23_ RTR  --- 3 message 32 [0 ffffffff 12 800] ------- [18:255 -1:255 32 0] 
r 0.139245686 _26_ RTR  --- 3 message 32 [0 ffffffff 12 800] ------- [18:255 -1:255 32 0] 
r 0.139245796 _2_ RTR  --- 3 message 32 [0 ffffffff 12 800] ------- [18:255 -1:255 32 0] 
r 0.139245803 _0_ RTR  --- 3 message 32 [0 ffffffff 12 800] ------- [18:255 -1:255 32 0] 
s 0.244926806 _5_ RTR  --- 4 message 32 [0 0 0 0] ------- [5:255 -1:255 32 0] 
r 0.248656922 _37_ RTR  --- 4 message 32 [0 ffffffff 5 800] ------- [5:255 -1:255 32 0] 
r 0.248657088 _2_ RTR  --- 4 message 32 [0 ffffffff 5 800] ------- [5:255 -1:255 32 0] 
r 0.248657219 _19_ RTR  --- 4 message 32 [0 ffffffff 5 800] ------- [5:255 -1:255 32 0] 
r 0.248657228 _31_ RTR  --- 4 message 32 [0 ffffffff 5 800] ------- [5:255 -1:255 32 0] 
r 0.248657252 _21_ RTR  --- 4 message 32 [0 ffffffff 5 800] ------- [5:255 -1:255 32 0] 
r 0.248657348 _27_ RTR  --- 4 message 32 [0 ffffffff 5 800] ------- [5:255 -1:255 32 0] 
r 0.248657356 _12_ RTR  --- 4 message 32 [0 ffffffff 5 800] ------- [5:255 -1:255 32 0] 
r 0.248657356 _20_ RTR  --- 4 message 32 [0 ffffffff 5 800] ------- [5:255 -1:255 32 0] 
r 0.248657384 _8_ RTR  --- 4 message 32 [0 ffffffff 5 800] ------- [5:255 -1:255 32 0] 
r 0.248657386 _35_ RTR  --- 4 message 32 [0 ffffffff 5 800] ------- [5:255 -1:255 32 0] 
r 0.248657445 _11_ RTR  --- 4 message 32 [0 ffffffff 5 800] ------- [5:255 -1:255 32 0] 
r 0.248657501 _29_ RTR  --- 4 message 32 [0 ffffffff 5 800] ------- [5:255 -1:255 32 0] 
r 0.248657573 _7_ RTR  --- 4 message 32 [0 ffffffff 5 800] ------- [5:255 -1:255 32 0] 
r 0.248657629 _24_ RTR  --- 4 message 32 [0 ffffffff 5 800] ------- [5:255 -1:255 32 0] 
s 0.307374157 _38_ RTR  --- 5 message 32 [0 0 0 0] ------- [38:255 -1:255 32 0] 
r 0.310144279 _39_ RTR  --- 5 message 32 [0 ffffffff 26 800] ------- [38:255 -1:255 32 0] 
r 0.310144294 _34_ RTR  --- 5 message 32 [0 ffffffff 26 800] ------- [38:255 -1:255 32 0] 
r 0.310144331 _1_ RTR  --- 5 message 32 [0 ffffffff 26 800] ------- [38:255 -1:255 32 0] 
r 0.310144358 _9_ RTR  --- 5 message 32 [0 ffffffff 26 800] ------- [38:255 -1:255 32 0] 
r 0.310144361 _33_ RTR  --- 5 message 32 [0 ffffffff 26 800] ------- [38:255 -1:255 32 0] 
r 0.310144412 _13_ RTR  --- 5 message 32 [0 ffffffff 26 800] ------- [38:255 -1:255 32 0] 
r 0.310144446 _7_ RTR  --- 5 message 32 [0 ffffffff 26 800] ------- [38:255 -1:255 32 0] 
r 0.310144450 _16_ RTR  --- 5 message 32 [0 ffffffff 26 800] ------- [38:255 -1:255 32 0] 
r 0.310144563 _29_ RTR  --- 5 message 32 [0 ffffffff 26 800] ------- [38:255 -1:255 32 0] 
r 0.310144656 _8_ RTR  --- 5 message 32 [0 ffffffff 26 800] ------- [38:255 -1:255 32 0] 
r 0.310144676 _12_ RTR  --- 5 message 32 [0 ffffffff 26 800] ------- [38:255 -1:255 32 0] 
r 0.310144693 _35_ RTR  --- 5 message 32 [0 ffffffff 26 800] ------- [38:255 -1:255 32 0] 
r 0.310144733 _30_ RTR  --- 5 message 32 [0 ffffffff 26 800] ------- [38:255 -1:255 32 0] 
r 0.310144745 _11_ RTR  --- 5 message 32 [0 ffffffff 26 800] ------- [38:255 -1:255 32 0] 
r 0.310144831 _36_ RTR  --- 5 message 32 [0 ffffffff 26 800] ------- [38:255 -1:255 32 0] 
r 0.310144987 _2_ RTR  --- 5 message 32 [0 ffffffff 26 800] ------- [38:255 -1:255 32 0] 
s 0.325572990 _16_ RTR  --- 6 message 32 [0 0 0 0] ------- [16:255 -1:255 32 0] 
r 0.329303090 _33_ RTR  --- 6 message 32 [0 ffffffff 10 800] ------- [16:255 -1:255 32 0] 
r 0.329303225 _39_ RTR  --- 6 message 32 [0 ffffffff 10 800] ------- [16:255 -1:255 32 0] 
r 0.329303282 _38_ RTR  --- 6 message 32 [0 ffffffff 10 800] ------- [16:255 -1:255 32 0] 
r 0.329303353 _34_ RTR  --- 6 message 32 [0 ffffffff 10 800] ------- [16:255 -1:255 32 0] 
r 0.329303387 _1_ RTR  --- 6 message 32 [0 ffffffff 10 800] ------- [16:255 -1:255 32 0] 
r 0.329303461 _9_ RTR  --- 6 message 32 [0 ffffffff 10 800] ------- [16:255 -1:255 32 0] 
r 0.329303508 _13_ RTR  --- 6 message 32 [0 ffffffff 10 800] ------- [16:255 -1:255 32 0] 
r 0.329303570 _7_ RTR  --- 6 message 32 [0 ffffffff 10 800] ------- [16:255 -1:255 32 0] 
r 0.329303581 _30_ RTR  --- 6 message 32 [0 ffffffff 10 800] ------- [16:255 -1:255 32 0] 
r 0.329303666 _36_ RTR  --- 6 message 32 [0 ffffffff 10 800] ------- [16:255 -1:255 32 0] 
r 0.329303675 _29_ RTR  --- 6 message 32 [0 ffffffff 10 800] ------- [16:255 -1:255 32 0] 
r 0.329303776 _8_ RTR  --- 6 message 32 [0 ffffffff 10 800] ------- [16:255 -1:255 32 0] 
r 0.329303799 _12_ RTR  --- 6 message 32 [0 ffffffff 10 800] ------- [16:255 -1:255 32 0] 
r 0.329303806 _35_ RTR  --- 6 message 32 [0 ffffffff 10 800] ------- [16:255 -1:255 32 0] 
s 0.355298683 _19_ RTR  --- 7 message 32 [0 0 0 0] ------- [19:255 -1:255 32 0] 
r 0.359028727 _31_ RTR  --- 7 message 32 [0 ffffffff 13 800] ------- [19:255 -1:255 32 0] 
r 0.359029096 _5_ RTR  --- 7 message 32 [0 ffffffff 13 800] ------- [19:255 -1:255 32 0] 
r 0.359029163 _37_ RTR  --- 7 message 32 [0 ffffffff 13 800] ------- [19:255 -1:255 32 0] 
r 0.359029370 _2_ RTR  --- 7 message 32 [0 ffffffff 13 800] ------- [19:255 -1:255 32 0] 
r 0.359029376 _21_ RTR  --- 7 message 32 [0 ffffffff 13 800] ------- [19:255 -1:255 32 0] 
r 0.359029498 _20_ RTR  --- 7 message 32 [0 ffffffff 13 800] ------- [19:255 -1:255 32 0] 
r 0.359029511 _35_ RTR  --- 7 message 32 [0 ffffffff 13 800] ------- [19:255 -1:255 32 0] 
s 0.416424413 _0_ RTR  --- 8 message 32 [0 0 0 0] ------- [0:255 -1:255 32 0] 
r 0.419194610 _3_ RTR  --- 8 message 32 [0 ffffffff 0 800] ------- [0:255 -1:255 32 0] 
r 0.419194642 _17_ RTR  --- 8 message 32 [0 ffffffff 0 800] ------- [0:255 -1:255 32 0] 
r 0.419194696 _14_ RTR  --- 8 message 32 [0 ffffffff 0 800] ------- [0:255 -1:255 32 0] 
r 0.419194824 _26_ RTR  --- 8 message 32 [0 ffffffff 0 800] ------- [0:255 -1:255 32 0] 
r 0.419194874 _6_ RTR  --- 8 message 32 [0 ffffffff 0 800] ------- [0:255 -1:255 32 0] 
r 0.419194884 _32_ RTR  --- 8 message 32 [0 ffffffff 0 800] ------- [0:255 -1:255 32 0] 
r 0.419194911 _23_ RTR  --- 8 message 32 [0 ffffffff 0 800] ------- [0:255 -1:255 32 0] 
r 0.419195022 _27_ RTR  --- 8 message 32 [0 ffffffff 0 800] ------- [0:255 -1:255 32 0] 
r 0.419195023 _22_ RTR  --- 8 message 32 [0 ffffffff 0 800] ------- [0:255 -1:255 32 0] 
r 0.419195026 _11_ RTR  --- 8 message 32 [0 ffffffff 0 800] ------- [0:255 -1:255 32 0] 
r 0.419195104 _24_ RTR  --- 8 message 32 [0 ffffffff 0 800] ------- [0:255 -1:255 32 0] 
r 0.419195106 _36_ RTR  --- 8 message 32 [0 ffffffff 0 800] ------- [0:255 -1:255 32 0] 
r 0.419195115 _10_ RTR  --- 8 message 32 [0 ffffffff 0 800] ------- [0:255 -1:255 32 0] 
r 0.419195123 _30_ RTR  --- 8 message 32 [0 ffffffff 0 800] ------- [0:255 -1:255 32 0] 
r 0.419195160 _15_ RTR  --- 8 message 32 [0 ffffffff 0 800] ------- [0:255 -1:255 32 0] 
r 0.419195230 _18_ RTR  --- 8 message 32 [0 ffffffff 0 800] ------- [0:255 -1:255 32 0] 
r 0.419195236 _13_ RTR  --- 8 message 32 [0 ffffffff 0 800] ------- [0:255 -1:255 32 0] 
r 0.419195244 _4_ RTR  --- 8 message 32 [0 ffffffff 0 800] ------- [0:255 -1:255 32 0] 
s 0.430447431 _7_ RTR  --- 9 message 32 [0 0 0 0] ------- [7:255 -1:255 32 0] 
r 0.434497599 _29_ RTR  --- 9 message 32 [0 ffffffff 7 800] ------- [7:255 -1:255 32 0] 
r 0.434497607 _9_ RTR  --- 9 message 32 [0 ffffffff 7 800] ------- [7:255 -1:255 32 0] 
r 0.434497615 _13_ RTR  --- 9 message 32 [0 ffffffff 7 800] ------- [7:255 -1:255 32 0] 
r 0.434497653 _8_ RTR  --- 9 message 32 [0 ffffffff 7 800] ------- [7:255 -1:255 32 0] 
r 0.434497673 _12_ RTR  --- 9 message 32 [0 ffffffff 7 800] ------- [7:255 -1:255 32 0] 
r 0.434497693 _1_ RTR  --- 9 message 32 [0 ffffffff 7 800] ------- [7:255 -1:255 32 0] 
r 0.434497707 _34_ RTR  --- 9 message 32 [0 ffffffff 7 800] ------- [7:255 -1:255 32 0] 
r 0.434497707 _35_ RTR  --- 9 message 32 [0 ffffffff 7 800] ------- [7:255 -1:255 32 0] 
r 0.434497719 _38_ RTR  --- 9 message 32 [0 ffffffff 7 800] ------- [7:255 -1:255 32 0] 
r 0.434497805 _39_ RTR  --- 9 message 32 [0 ffffffff 7 800] ------- [7:255 -1:255 32 0] 
r 0.434497812 _11_ RTR  --- 9 message 32 [0 ffffffff 7 800] ------- [7:255 -1:255 32 0] 
r 0.434497921 _33_ RTR  --- 9 message 32 [0 ffffffff 7 800] ------- [7:255 -1:255 32 0] 
r 0.434497981 _2_ RTR  --- 9 message 32 [0 ffffffff 7 800] ------- [7:255 -1:255 32 0] 
r 0.434498012 _16_ RTR  --- 9 message 32 [0 ffffffff 7 800] ------- [7:255 -1:255 32 0] 
r 0.434498084 _37_ RTR  --- 9 message 32 [0 ffffffff 7 800] ------- [7:255 -1:255 32 0] 
r 0.434498131 _30_ RTR  --- 9 message 32 [0 ffffffff 7 800] ------- [7:255 -1:255 32 0] 
r 0.434498198 _5_ RTR  --- 9 message 32 [0 ffffffff 7 800] ------- [7:255 -1:255 32 0] 
r 0.434498225 _17_ RTR  --- 9 message 32 [0 ffffffff 7 800] ------- [7:255 -1:255 32 0] 
r 0.434498225 _36_ RTR  --- 9 message 32 [0 ffffffff 7 800] ------- [7:255 -1:255 32 0] 
s 0.461883501 _24_ RTR  --- 10 message 32 [0 0 0 0] ------- [24:255 -1:255 32 0] 
s 0.462257358 _31_ RTR  --- 11 message 32 [0 0 0 0] ------- [31:255 -1:255 32 0] 
r 0.465933565 _15_ RTR  --- 10 message 32 [0 ffffffff 18 800] ------- [24:255 -1:255 32 0] 
r 0.465933628 _18_ RTR  --- 10 message 32 [0 ffffffff 18 800] ------- [24:255 -1:255 32 0] 
r 0.465933651 _4_ RTR  --- 10 message 32 [0 ffffffff 18 800] ------- [24:255 -1:255 32 0] 
r 0.465933812 _28_ RTR  --- 10 message 32 [0 ffffffff 18 800] ------- [24:255 -1:255 32 0] 
r 0.465933840 _20_ RTR  --- 10 message 32 [0 ffffffff 18 800] ------- [24:255 -1:255 32 0] 
r 0.465933855 _27_ RTR  --- 10 message 32 [0 ffffffff 18 800] ------- [24:255 -1:255 32 0] 
r 0.465933876 _25_ RTR  --- 10 message 32 [0 ffffffff 18 800] ------- [24:255 -1:255 32 0] 
r 0.465933957 _21_ RTR  --- 10 message 32 [0 ffffffff 18 800] ------- [24:255 -1:255 32 0] 
r 0.465933977 _14_ RTR  --- 10 message 32 [0 ffffffff 18 800] ------- [24:255 -1:255 32 0] 
r 0.465933995 _3_ RTR  --- 10 message 32 [0 ffffffff 18 800] ------- [24:255 -1:255 32 0] 
r 0.465934030 _23_ RTR  --- 10 message 32 [0 ffffffff 18 800] ------- [24:255 -1:255 32 0] 
r 0.465934097 _26_ RTR  --- 10 message 32 [0 ffffffff 18 800] ------- [24:255 -1:255 32 0] 
r 0.465934192 _0_ RTR  --- 10 message 32 [0 ffffffff 18 800] ------- [24:255 -1:255 32 0] 
r 0.465934237 _32_ RTR  --- 10 message 32 [0 ffffffff 18 800] ------- [24:255 -1:255 32 0] 
r 0.465934243 _6_ RTR  --- 10 message 32 [0 ffffffff 18 800] ------- [24:255 -1:255 32 0] 
r 0.465934258 _2_ RTR  --- 10 message 32 [0 ffffffff 18 800] ------- [24:255 -1:255 32 0] 
r 0.465934325 _5_ RTR  --- 10 message 32 [0 ffffffff 18 800] ------- [24:255 -1:255 32 0] 
r 0.473283402 _19_ RTR  --- 11 message 32 [0 ffffffff 1f 800] ------- [31:255 -1:255 32 0] 
r 0.473283781 _5_ RTR  --- 11 message 32 [0 ffffffff 1f 800] ------- [31:255 -1:255 32 0] 
r 0.473283839 _37_ RTR  --- 11 message 32 [0 ffffffff 1f 800] ------- [31:255 -1:255 32 0] 
r 0.473284048 _2_ RTR  --- 11 message 32 [0 ffffffff 1f 800] ------- [31:255 -1:255 32 0] 
r 0.473284084 _21_ RTR  --- 11 message 32 [0 ffffffff 1f 800] ------- [31:255 -1:255 32 0] 
r 0.473284165 _35_ RTR  --- 11 message 32 [0 ffffffff 1f 800] ------- [31:255 -1:255 32 0] 
s 0.475251639 _17_ RTR  --- 12 message 32 [0 0 0 0] ------- [17:255 -1:255 32 0] 
r 0.479941867 _0_ RTR  --- 12 message 32 [0 ffffffff 11 800] ------- [17:255 -1:255 32 0] 
r 0.479942035 _3_ RTR  --- 12 message 32 [0 ffffffff 11 800] ------- [17:255 -1:255 32 0] 
r 0.479942114 _36_ RTR  --- 12 message 32 [0 ffffffff 11 800] ------- [17:255 -1:255 32 0] 
r 0.479942122 _30_ RTR  --- 12 message 32 [0 ffffffff 11 800] ------- [17:255 -1:255 32 0] 
r 0.479942146 _14_ RTR  --- 12 message 32 [0 ffffffff 11 800] ------- [17:255 -1:255 32 0] 
r 0.479942149 _11_ RTR  --- 12 message 32 [0 ffffffff 11 800] ------- [17:255 -1:255 32 0] 
r 0.479942202 _22_ RTR  --- 12 message 32 [0 ffffffff 11 800] ------- [17:255 -1:255 32 0] 
r 0.479942274 _26_ RTR  --- 12 message 32 [0 ffffffff 11 800] ------- [17:255 -1:255 32 0] 
r 0.479942279 _13_ RTR  --- 12 message 32 [0 ffffffff 11 800] ------- [17:255 -1:255 32 0] 
r 0.479942303 _10_ RTR  --- 12 message 32 [0 ffffffff 11 800] ------- [17:255 -1:255 32 0] 
r 0.479942305 _6_ RTR  --- 12 message 32 [0 ffffffff 11 800] ------- [17:255 -1:255 32 0] 
r 0.479942317 _32_ RTR  --- 12 message 32 [0 ffffffff 11 800] ------- [17:255 -1:255 32 0] 
r 0.479942325 _9_ RTR  --- 12 message 32 [0 ffffffff 11 800] ------- [17:255 -1:255 32 0] 
r 0.479942336 _27_ RTR  --- 12 message 32 [0 ffffffff 11 800] ------- [17:255 -1:255 32 0] 
r 0.479942348 _34_ RTR  --- 12 message 32 [0 ffffffff 11 800] ------- [17:255 -1:255 32 0] 
r 0.479942365 _23_ RTR  --- 12 message 32 [0 ffffffff 11 800] ------- [17:255 -1:255 32 0] 
r 0.479942369 _12_ RTR  --- 12 message 32 [0 ffffffff 11 800] ------- [17:255 -1:255 32 0] 
r 0.479942433 _7_ RTR  --- 12 message 32 [0 ffffffff 11 800] ------- [17:255 -1:255 32 0] 
r 0.479942452 _2_ RTR  --- 12 message 32 [0 ffffffff 11 800] ------- [17:255 -1:255 32 0] 
s 0.670997763 _4_ RTR  --- 13 message 32 [0 0 0 0] ------- [4:255 -1:255 32 0] 
r 0.674407817 _18_ RTR  --- 13 message 32 [0 ffffffff 4 800] ------- [4:255 -1:255 32 0] 
r 0.674407849 _15_ RTR  --- 13 message 32 [0 ffffffff 4 800] ------- [4:255 -1:255 32 0] 
r 0.674407912 _24_ RTR  --- 13 message 32 [0 ffffffff 4 800] ------- [4:255 -1:255 32 0] 
r 0.674407932 _28_ RTR  --- 13 message 32 [0 ffffffff 4 800] ------- [4:255 -1:255 32 0] 
r 0.674408063 _25_ RTR  --- 13 message 32 [0 ffffffff 4 800] ------- [4:255 -1:255 32 0] 
r 0.674408116 _20_ RTR  --- 13 message 32 [0 ffffffff 4 800] ------- [4:255 -1:255 32 0] 
r 0.674408237 _21_ RTR  --- 13 message 32 [0 ffffffff 4 800] ------- [4:255 -1:255 32 0] 
r 0.674408242 _27_ RTR  --- 13 message 32 [0 ffffffff 4 800] ------- [4:255 -1:255 32 0] 
r 0.674408359 _14_ RTR  --- 13 message 32 [0 ffffffff 4 800] ------- [4:255 -1:255 32 0] 
r 0.674408363 _23_ RTR  --- 13 message 32 [0 ffffffff 4 800] ------- [4:255 -1:255 32 0] 
r 0.674408396 _3_ RTR  --- 13 message 32 [0 ffffffff 4 800] ------- [4:255 -1:255 32 0] 
r 0.674408448 _26_ RTR  --- 13 message 32 [0 ffffffff 4 800] ------- [4:255 -1:255 32 0] 
r 0.674408582 _32_ RTR  --- 13 message 32 [0 ffffffff 4 800] ------- [4:255 -1:255 32 0] 
r 0.674408590 _6_ RTR  --- 13 message 32 [0 ffffffff 4 800] ------- [4:255 -1:255 32 0] 
r 0.674408593 _0_ RTR  --- 13 message 32 [0 ffffffff 4 800] ------- [4:255 -1:255 32 0] 
s 0.680683419 _27_ RTR  --- 14 message 32 [0 0 0 0] ------- [27:255 -1:255 32 0] 
r 0.683453753 _20_ RTR  --- 14 message 32 [0 ffffffff 1b 800] ------- [27:255 -1:255 32 0] 
r 0.683453773 _24_ RTR  --- 14 message 32 [0 ffffffff 1b 800] ------- [27:255 -1:255 32 0] 
r 0.683453790 _21_ RTR  --- 14 message 32 [0 ffffffff 1b 800] ------- [27:255 -1:255 32 0] 
r 0.683453829 _15_ RTR  --- 14 message 32 [0 ffffffff 1b 800] ------- [27:255 -1:255 32 0] 
r 0.683453830 _2_ RTR  --- 14 message 32 [0 ffffffff 1b 800] ------- [27:255 -1:255 32 0] 
r 0.683453851 _18_ RTR  --- 14 message 32 [0 ffffffff 1b 800] ------- [27:255 -1:255 32 0] 
r 0.683453879 _3_ RTR  --- 14 message 32 [0 ffffffff 1b 800] ------- [27:255 -1:255 32 0] 
r 0.683453899 _4_ RTR  --- 14 message 32 [0 ffffffff 1b 800] ------- [27:255 -1:255 32 0] 
r 0.683453932 _11_ RTR  --- 14 message 32 [0 ffffffff 1b 800] ------- [27:255 -1:255 32 0] 
r 0.683453961 _5_ RTR  --- 14 message 32 [0 ffffffff 1b 800] ------- [27:255 -1:255 32 0] 
r 0.683453961 _14_ RTR  --- 14 message 32 [0 ffffffff 1b 800] ------- [27:255 -1:255 32 0] 
r 0.683453975 _37_ RTR  --- 14 message 32 [0 ffffffff 1b 800] ------- [27:255 -1:255 32 0] 
r 0.683454028 _0_ RTR  --- 14 message 32 [0 ffffffff 1b 800] ------- [27:255 -1:255 32 0] 
r 0.683454054 _12_ RTR  --- 14 message 32 [0 ffffffff 1b 800] ------- [27:255 -1:255 32 0] 
r 0.683454069 _28_ RTR  --- 14 message 32 [0 ffffffff 1b 800] ------- [27:255 -1:255 32 0] 
r 0.683454116 _17_ RTR  --- 14 message 32 [0 ffffffff 1b 800] ------- [27:255 -1:255 32 0] 
r 0.683454139 _23_ RTR  --- 14 message 32 [0 ffffffff 1b 800] ------- [27:255 -1:255 32 0] 
r 0.683454144 _25_ RTR  --- 14 message 32 [0 ffffffff 1b 800] ------- [27:255 -1:255 32 0] 
r 0.683454154 _26_ RTR  --- 14 message 32 [0 ffffffff 1b 800] ------- [27:255 -1:255 32 0] 
r 0.683454216 _8_ RTR  --- 14 message 32 [0 ffffffff 1b 800] ------- [27:255 -1:255 32 0] 
s 0.819730637 _10_ RTR  --- 15 message 32 [0 0 0 0] ------- [10:255 -1:255 32 0] 
r 0.824100738 _22_ RTR  --- 15 message 32 [0 ffffffff a 800] ------- [10:255 -1:255 32 0] 
r 0.824101301 _36_ RTR  --- 15 message 32 [0 ffffffff a 800] ------- [10:255 -1:255 32 0] 
r 0.824101302 _17_ RTR  --- 15 message 32 [0 ffffffff a 800] ------- [10:255 -1:255 32 0] 
r 0.824101339 _0_ RTR  --- 15 message 32 [0 ffffffff a 800] ------- [10:255 -1:255 32 0] 
r 0.824101388 _6_ RTR  --- 15 message 32 [0 ffffffff a 800] ------- [10:255 -1:255 32 0] 
r 0.824101393 _30_ RTR  --- 15 message 32 [0 ffffffff a 800] ------- [10:255 -1:255 32 0] 
r 0.824101402 _32_ RTR  --- 15 message 32 [0 ffffffff a 800] ------- [10:255 -1:255 32 0] 
s 0.846064120 _9_ RTR  --- 16 message 32 [0 0 0 0] ------- [9:255 -1:255 32 0] 
r 0.849794175 _13_ RTR  --- 16 message 32 [0 ffffffff 9 800] ------- [9:255 -1:255 32 0] 
r 0.849794237 _34_ RTR  --- 16 message 32 [0 ffffffff 9 800] ------- [9:255 -1:255 32 0] 
r 0.849794296 _7_ RTR  --- 16 message 32 [0 ffffffff 9 800] ------- [9:255 -1:255 32 0] 
r 0.849794321 _38_ RTR  --- 16 message 32 [0 ffffffff 9 800] ------- [9:255 -1:255 32 0] 
r 0.849794408 _1_ RTR  --- 16 message 32 [0 ffffffff 9 800] ------- [9:255 -1:255 32 0] 
r 0.849794439 _39_ RTR  --- 16 message 32 [0 ffffffff 9 800] ------- [9:255 -1:255 32 0] 
r 0.849794462 _29_ RTR  --- 16 message 32 [0 ffffffff 9 800] ------- [9:255 -1:255 32 0] 
r 0.849794470 _12_ RTR  --- 16 message 32 [0 ffffffff 9 800] ------- [9:255 -1:255 32 0] 
r 0.849794492 _33_ RTR  --- 16 message 32 [0 ffffffff 9 800] ------- [9:255 -1:255 32 0] 
r 0.849794507 _11_ RTR  --- 16 message 32 [0 ffffffff 9 800] ------- [9:255 -1:255 32 0] 
r 0.849794514 _8_ RTR  --- 16 message 32 [0 ffffffff 9 800] ------- [9:255 -1:255 32 0] 
r 0.849794572 _35_ RTR  --- 16 message 32 [0 ffffffff 9 800] ------- [9:255 -1:255 32 0] 
r 0.849794591 _16_ RTR  --- 16 message 32 [0 ffffffff 9 800] ------- [9:255 -1:255 32 0] 
r 0.849794648 _30_ RTR  --- 16 message 32 [0 ffffffff 9 800] ------- [9:255 -1:255 32 0] 
r 0.849794743 _36_ RTR  --- 16 message 32 [0 ffffffff 9 800] ------- [9:255 -1:255 32 0] 
r 0.849794774 _2_ RTR  --- 16 message 32 [0 ffffffff 9 800] ------- [9:255 -1:255 32 0] 
r 0.849794806 _17_ RTR  --- 16 message 32 [0 ffffffff 9 800] ------- [9:255 -1:255 32 0] 
r 0.849794911 _37_ RTR  --- 16 message 32 [0 ffffffff 9 800] ------- [9:255 -1:255 32 0] 
s 0.865684118 _8_ RTR  --- 17 message 32 [0 0 0 0] ------- [8:255 -1:255 32 0] 
r 0.868134192 _35_ RTR  --- 17 message 32 [0 ffffffff 8 800] ------- [8:255 -1:255 32 0] 
r 0.868134235 _29_ RTR  --- 17 message 32 [0 ffffffff 8 800] ------- [8:255 -1:255 32 0] 
r 0.868134311 _12_ RTR  --- 17 message 32 [0 ffffffff 8 800] ------- [8:255 -1:255 32 0] 
r 0.868134340 _7_ RTR  --- 17 message 32 [0 ffffffff 8 800] ------- [8:255 -1:255 32 0] 
r 0.868134505 _13_ RTR  --- 17 message 32 [0 ffffffff 8 800] ------- [8:255 -1:255 32 0] 
r 0.868134511 _9_ RTR  --- 17 message 32 [0 ffffffff 8 800] ------- [8:255 -1:255 32 0] 
r 0.868134534 _1_ RTR  --- 17 message 32 [0 ffffffff 8 800] ------- [8:255 -1:255 32 0] 
r 0.868134535 _2_ RTR  --- 17 message 32 [0 ffffffff 8 800] ------- [8:255 -1:255 32 0] 
r 0.868134536 _11_ RTR  --- 17 message 32 [0 ffffffff 8 800] ------- [8:255 -1:255 32 0] 
r 0.868134580 _37_ RTR  --- 17 message 32 [0 ffffffff 8 800] ------- [8:255 -1:255 32 0] 
r 0.868134616 _38_ RTR  --- 17 message 32 [0 ffffffff 8 800] ------- [8:255 -1:255 32 0] 
r 0.868134617 _34_ RTR  --- 17 message 32 [0 ffffffff 8 800] ------- [8:255 -1:255 32 0] 
r 0.868134681 _39_ RTR  --- 17 message 32 [0 ffffffff 8 800] ------- [8:255 -1:255 32 0] 
r 0.868134696 _5_ RTR  --- 17 message 32 [0 ffffffff 8 800] ------- [8:255 -1:255 32 0] 
r 0.868134820 _33_ RTR  --- 17 message 32 [0 ffffffff 8 800] ------- [8:255 -1:255 32 0] 
r 0.868134904 _16_ RTR  --- 17 message 32 [0 ffffffff 8 800] ------- [8:255 -1:255 32 0] 
r 0.868134914 _27_ RTR  --- 17 message 32 [0 ffffffff 8 800] ------- [8:255 -1:255 32 0] 
s 0.873719668 _30_ RTR  --- 18 message 32 [0 0 0 0] ------- [30:255 -1:255 32 0] 
r 0.878089766 _36_ RTR  --- 18 message 32 [0 ffffffff 1e 800] ------- [30:255 -1:255 32 0] 
r 0.878090133 _34_ RTR  --- 18 message 32 [0 ffffffff 1e 800] ------- [30:255 -1:255 32 0] 
r 0.878090151 _17_ RTR  --- 18 message 32 [0 ffffffff 1e 800] ------- [30:255 -1:255 32 0] 
r 0.878090186 _13_ RTR  --- 18 message 32 [0 ffffffff 1e 800] ------- [30:255 -1:255 32 0] 
r 0.878090196 _9_ RTR  --- 18 message 32 [0 ffffffff 1e 800] ------- [30:255 -1:255 32 0] 
r 0.878090201 _33_ RTR  --- 18 message 32 [0 ffffffff 1e 800] ------- [30:255 -1:255 32 0] 
r 0.878090243 _38_ RTR  --- 18 message 32 [0 ffffffff 1e 800] ------- [30:255 -1:255 32 0] 
r 0.878090260 _16_ RTR  --- 18 message 32 [0 ffffffff 1e 800] ------- [30:255 -1:255 32 0] 
r 0.878090327 _39_ RTR  --- 18 message 32 [0 ffffffff 1e 800] ------- [30:255 -1:255 32 0] 
r 0.878090333 _11_ RTR  --- 18 message 32 [0 ffffffff 1e 800] ------- [30:255 -1:255 32 0] 
r 0.878090344 _22_ RTR  --- 18 message 32 [0 ffffffff 1e 800] ------- [30:255 -1:255 32 0] 
r 0.878090368 _7_ RTR  --- 18 message 32 [0 ffffffff 1e 800] ------- [30:255 -1:255 32 0] 
r 0.878090378 _0_ RTR  --- 18 message 32 [0 ffffffff 1e 800] ------- [30:255 -1:255 32 0] 
r 0.878090414 _1_ RTR  --- 18 message 32 [0 ffffffff 1e 800] ------- [30:255 -1:255 32 0] 
r 0.878090424 _10_ RTR  --- 18 message 32 [0 ffffffff 1e 800] ------- [30:255 -1:255 32 0] 
r 0.878090459 _12_ RTR  --- 18 message 32 [0 ffffffff 1e 800] ------- [30:255 -1:255 32 0] 
s 0.883427633 _3_ RTR  --- 19 message 32 [0 0 0 0] ------- [3:255 -1:255 32 0] 
s 0.884604422 _2_ RTR  --- 20 message 32 [0 0 0 0] ------- [2:255 -1:255 32 0] 
r 0.887157777 _14_ RTR  --- 19 message 32 [0 ffffffff 3 800] ------- [3:255 -1:255 32 0] 
r 0.887157829 _0_ RTR  --- 19 message 32 [0 ffffffff 3 800] ------- [3:255 -1:255 32 0] 
r 0.887157973 _26_ RTR  --- 19 message 32 [0 ffffffff 3 800] ------- [3:255 -1:255 32 0] 
r 0.887158021 _23_ RTR  --- 19 message 32 [0 ffffffff 3 800] ------- [3:255 -1:255 32 0] 
r 0.887158029 _17_ RTR  --- 19 message 32 [0 ffffffff 3 800] ------- [3:255 -1:255 32 0] 
r 0.887158080 _6_ RTR  --- 19 message 32 [0 ffffffff 3 800] ------- [3:255 -1:255 32 0] 
r 0.887158085 _32_ RTR  --- 19 message 32 [0 ffffffff 3 800] ------- [3:255 -1:255 32 0] 
r 0.887158092 _27_ RTR  --- 19 message 32 [0 ffffffff 3 800] ------- [3:255 -1:255 32 0] 
r 0.887158127 _24_ RTR  --- 19 message 32 [0 ffffffff 3 800] ------- [3:255 -1:255 32 0] 
r 0.887158183 _15_ RTR  --- 19 message 32 [0 ffffffff 3 800] ------- [3:255 -1:255 32 0] 
r 0.887158253 _18_ RTR  --- 19 message 32 [0 ffffffff 3 800] ------- [3:255 -1:255 32 0] 
r 0.887158256 _11_ RTR  --- 19 message 32 [0 ffffffff 3 800] ------- [3:255 -1:255 32 0] 
r 0.887158267 _4_ RTR  --- 19 message 32 [0 ffffffff 3 800] ------- [3:255 -1:255 32 0] 
r 0.887158330 _25_ RTR  --- 19 message 32 [0 ffffffff 3 800] ------- [3:255 -1:255 32 0] 
r 0.887158360 _20_ RTR  --- 19 message 32 [0 ffffffff 3 800] ------- [3:255 -1:255 32 0] 
r 0.887158395 _28_ RTR  --- 19 message 32 [0 ffffffff 3 800] ------- [3:255 -1:255 32 0] 
r 0.887158399 _2_ RTR  --- 19 message 32 [0 ffffffff 3 800] ------- [3:255 -1:255 32 0] 
r 0.887158424 _22_ RTR  --- 19 message 32 [0 ffffffff 3 800] ------- [3:255 -1:255 32 0] 
r 0.887158438 _21_ RTR  --- 19 message 32 [0 ffffffff 3 800] ------- [3:255 -1:255 32 0] 
s 0.888012490 _32_ RTR  --- 21 message 32 [0 0 0 0] ------- [32:255 -1:255 32 0] 
r 0.888974634 _37_ RTR  --- 20 message 32 [0 ffffffff 2 800] ------- [2:255 -1:255 32 0] 
r 0.888974704 _5_ RTR  --- 20 message 32 [0 ffffffff 2 800] ------- [2:255 -1:255 32 0] 
r 0.888974733 _12_ RTR  --- 20 message 32 [0 ffffffff 2 800] ------- [2:255 -1:255 32 0] 
r 0.888974780 _11_ RTR  --- 20 message 32 [0 ffffffff 2 800] ------- [2:255 -1:255 32 0] 
r 0.888974833 _27_ RTR  --- 20 message 32 [0 ffffffff 2 800] ------- [2:255 -1:255 32 0] 
r 0.888974839 _8_ RTR  --- 20 message 32 [0 ffffffff 2 800] ------- [2:255 -1:255 32 0] 
r 0.888974876 _35_ RTR  --- 20 message 32 [0 ffffffff 2 800] ------- [2:255 -1:255 32 0] 
r 0.888974953 _21_ RTR  --- 20 message 32 [0 ffffffff 2 800] ------- [2:255 -1:255 32 0] 
r 0.888974953 _29_ RTR  --- 20 message 32 [0 ffffffff 2 800] ------- [2:255 -1:255 32 0] 
r 0.888974973 _7_ RTR  --- 20 message 32 [0 ffffffff 2 800] ------- [2:255 -1:255 32 0] 
r 0.888975012 _20_ RTR  --- 20 message 32 [0 ffffffff 2 800] ------- [2:255 -1:255 32 0] 