s 0.036328457 _11_ RTR  --- 0 message 32 [0 0 0 0] ------- [11:255 -1:255 32 0] 
r 0.038778531 _24_ RTR  --- 0 message 32 [0 ffffffff b 800] ------- [11:255 -1:255 32 0] 
r 0.038778618 _15_ RTR  --- 0 message 32 [0 ffffffff b 800] ------- [11:255 -1:255 32 0] 
r 0.038778710 _10_ RTR  --- 0 message 32 [0 ffffffff b 800] ------- [11:255 -1:255 32 0] 
r 0.038778808 _13_ RTR  --- 0 message 32 [0 ffffffff b 800] ------- [11:255 -1:255 32 0] 
r 0.038778830 _30_ RTR  --- 0 message 32 [0 ffffffff b 800] ------- [11:255 -1:255 32 0] 
r 0.038778870 _0_ RTR  --- 0 message 32 [0 ffffffff b 800] ------- [11:255 -1:255 32 0] 
r 0.038778882 _14_ RTR  --- 0 message 32 [0 ffffffff b 800] ------- [11:255 -1:255 32 0] 
r 0.038778893 _26_ RTR  --- 0 message 32 [0 ffffffff b 800] ------- [11:255 -1:255 32 0] 
r 0.038778972 _18_ RTR  --- 0 message 32 [0 ffffffff b 800] ------- [11:255 -1:255 32 0] 
r 0.038778994 _17_ RTR  --- 0 message 32 [0 ffffffff b 800] ------- [11:255 -1:255 32 0] 
r 0.038779009 _22_ RTR  --- 0 message 32 [0 ffffffff b 800] ------- [11:255 -1:255 32 0] 
r 0.038779059 _21_ RTR  --- 0 message 32 [0 ffffffff b 800] ------- [11:255 -1:255 32 0] 
r 0.038779154 _36_ RTR  --- 0 message 32 [0 ffffffff b 800] ------- [11:255 -1:255 32 0] 
r 0.038779154 _20_ RTR  --- 0 message 32 [0 ffffffff b 800] ------- [11:255 -1:255 32 0] 
r 0.038779177 _31_ RTR  --- 0 message 32 [0 ffffffff b 800] ------- [11:255 -1:255 32 0] 
r 0.038779213 _23_ RTR  --- 0 message 32 [0 ffffffff b 800] ------- [11:255 -1:255 32 0] 
r 0.038779267 _35_ RTR  --- 0 message 32 [0 ffffffff b 800] ------- [11:255 -1:255 32 0] 
s 0.073282045 _4_ RTR  --- 1 message 32 [0 0 0 0] ------- [4:255 -1:255 32 0] 
r 0.076692077 _12_ RTR  --- 1 message 32 [0 ffffffff 4 800] ------- [4:255 -1:255 32 0] 
r 0.076692167 _2_ RTR  --- 1 message 32 [0 ffffffff 4 800] ------- [4:255 -1:255 32 0] 
r 0.076692175 _1_ RTR  --- 1 message 32 [0 ffffffff 4 800] ------- [4:255 -1:255 32 0] 
r 0.076692231 _19_ RTR  --- 1 message 32 [0 ffffffff 4 800] ------- [4:255 -1:255 32 0] 
r 0.076692318 _38_ RTR  --- 1 message 32 [0 ffffffff 4 800] ------- [4:255 -1:255 32 0] 
r 0.076692324 _23_ RTR  --- 1 message 32 [0 ffffffff 4 800] ------- [4:255 -1:255 32 0] 
r 0.076692372 _16_ RTR  --- 1 message 32 [0 ffffffff 4 800] ------- [4:255 -1:255 32 0] 
r 0.076692384 _9_ RTR  --- 1 message 32 [0 ffffffff 4 800] ------- [4:255 -1:255 32 0] 
r 0.076692386 _5_ RTR  --- 1 message 32 [0 ffffffff 4 800] ------- [4:255 -1:255 32 0] 
r 0.076692387 _8_ RTR  --- 1 message 32 [0 ffffffff 4 800] ------- [4:255 -1:255 32 0] 
r 0.076692431 _37_ RTR  --- 1 message 32 [0 ffffffff 4 800] ------- [4:255 -1:255 32 0] 
r 0.076692456 _27_ RTR  --- 1 message 32 [0 ffffffff 4 800] ------- [4:255 -1:255 32 0] 
r 0.076692459 _25_ RTR  --- 1 message 32 [0 ffffffff 4 800] ------- [4:255 -1:255 32 0] 
r 0.076692503 _35_ RTR  --- 1 message 32 [0 ffffffff 4 800] ------- [4:255 -1:255 32 0] 
r 0.076692506 _18_ RTR  --- 1 message 32 [0 ffffffff 4 800] ------- [4:255 -1:255 32 0] 
r 0.076692555 _6_ RTR  --- 1 message 32 [0 ffffffff 4 800] ------- [4:255 -1:255 32 0] 
r 0.076692565 _3_ RTR  --- 1 message 32 [0 ffffffff 4 800] ------- [4:255 -1:255 32 0] 
r 0.076692592 _0_ RTR  --- 1 message 32 [0 ffffffff 4 800] ------- [4:255 -1:255 32 0] 
r 0.076692615 _32_ RTR  --- 1 message 32 [0 ffffffff 4 800] ------- [4:255 -1:255 32 0] 
r 0.076692688 _28_ RTR  --- 1 message 32 [0 ffffffff 4 800] ------- [4:255 -1:255 32 0] 
r 0.076692701 _30_ RTR  --- 1 message 32 [0 ffffffff 4 800] ------- [4:255 -1:255 32 0] 
r 0.076692733 _33_ RTR  --- 1 message 32 [0 ffffffff 4 800] ------- [4:255 -1:255 32 0] 
r 0.076692742 _22_ RTR  --- 1 message 32 [0 ffffffff 4 800] ------- [4:255 -1:255 32 0] 
r 0.076692753 _36_ RTR  --- 1 message 32 [0 ffffffff 4 800] ------- [4:255 -1:255 32 0] 
s 0.088584275 _31_ RTR  --- 2 message 32 [0 0 0 0] ------- [31:255 -1:255 32 0] 
r 0.092634305 _20_ RTR  --- 2 message 32 [0 ffffffff 1f 800] ------- [31:255 -1:255 32 0] 
r 0.092634471 _21_ RTR  --- 2 message 32 [0 ffffffff 1f 800] ------- [31:255 -1:255 32 0] 
r 0.092634480 _39_ RTR  --- 2 message 32 [0 ffffffff 1f 800] ------- [31:255 -1:255 32 0] 
r 0.092634573 _7_ RTR  --- 2 message 32 [0 ffffffff 1f 800] ------- [31:255 -1:255 32 0] 
r 0.092634648 _13_ RTR  --- 2 message 32 [0 ffffffff 1f 800] ------- [31:255 -1:255 32 0] 
r 0.092634738 _26_ RTR  --- 2 message 32 [0 ffffffff 1f 800] ------- [31:255 -1:255 32 0] 
r 0.092634783 _14_ RTR  --- 2 message 32 [0 ffffffff 1f 800] ------- [31:255 -1:255 32 0] 
r 0.092634795 _35_ RTR  --- 2 message 32 [0 ffffffff 1f 800] ------- [31:255 -1:255 32 0] 
r 0.092634827 _0_ RTR  --- 2 message 32 [0 ffffffff 1f 800] ------- [31:255 -1:255 32 0] 
r 0.092634837 _15_ RTR  --- 2 message 32 [0 ffffffff 1f 800] ------- [31:255 -1:255 32 0] 
r 0.092634921 _33_ RTR  --- 2 message 32 [0 ffffffff 1f 800] ------- [31:255 -1:255 32 0] 
r 0.092634947 _24_ RTR  --- 2 message 32 [0 ffffffff 1f 800] ------- [31:255 -1:255 32 0] 
r 0.092634965 _10_ RTR  --- 2 message 32 [0 ffffffff 1f 800] ------- [31:255 -1:255 32 0] 
r 0.092634983 _3_ RTR  --- 2 message 32 [0 ffffffff 1f 800] ------- [31:255 -1:255 32 0] 
r 0.092634995 _11_ RTR  --- 2 message 32 [0 ffffffff 1f 800] ------- [31:255 -1:255 32 0] 
r 0.092635057 _25_ RTR  --- 2 message 32 [0 ffffffff 1f 800] ------- [31:255 -1:255 32 0] 
r 0.092635062 _38_ RTR  --- 2 message 32 [0 ffffffff 1f 800] ------- [31:255 -1:255 32 0] 
s 0.126846076 _36_ RTR  --- 3 message 32 [0 0 0 0] ------- [36:255 -1:255 32 0] 
s 0.129642904 _28_ RTR  --- 4 message 32 [0 0 0 0] ------- [28:255 -1:255 32 0] 
r 0.130896221 _22_ RTR  --- 3 message 32 [0 ffffffff 24 800] ------- [36:255 -1:255 32 0] 
r 0.130896411 _34_ RTR  --- 3 message 32 [0 ffffffff 24 800] ------- [36:255 -1:255 32 0] 
r 0.130896420 _30_ RTR  --- 3 message 32 [0 ffffffff 24 800] ------- [36:255 -1:255 32 0] 
r 0.130896445 _18_ RTR  --- 3 message 32 [0 ffffffff 24 800] ------- [36:255 -1:255 32 0] 
r 0.130896455 _29_ RTR  --- 3 message 32 [0 ffffffff 24 800] ------- [36:255 -1:255 32 0] 
r 0.130896474 _6_ RTR  --- 3 message 32 [0 ffffffff 24 800] ------- [36:255 -1:255 32 0] 
r 0.130896505 _23_ RTR  --- 3 message 32 [0 ffffffff 24 800] ------- [36:255 -1:255 32 0] 
r 0.130896643 _5_ RTR  --- 3 message 32 [0 ffffffff 24 800] ------- [36:255 -1:255 32 0] 
r 0.130896645 _9_ RTR  --- 3 message 32 [0 ffffffff 24 800] ------- [36:255 -1:255 32 0] 
r 0.130896647 _28_ RTR  --- 3 message 32 [0 ffffffff 24 800] ------- [36:255 -1:255 32 0] 
r 0.130896652 _19_ RTR  --- 3 message 32 [0 ffffffff 24 800] ------- [36:255 -1:255 32 0] 
r 0.130896698 _2_ RTR  --- 3 message 32 [0 ffffffff 24 800] ------- [36:255 -1:255 32 0] 
r 0.130896699 _1_ RTR  --- 3 message 32 [0 ffffffff 24 800] ------- [36:255 -1:255 32 0] 
r 0.130896705 _32_ RTR  --- 3 message 32 [0 ffffffff 24 800] ------- [36:255 -1:255 32 0] 
r 0.130896746 _0_ RTR  --- 3 message 32 [0 ffffffff 24 800] ------- [36:255 -1:255 32 0] 
r 0.130896753 _24_ RTR  --- 3 message 32 [0 ffffffff 24 800] ------- [36:255 -1:255 32 0] 
r 0.130896772 _11_ RTR  --- 3 message 32 [0 ffffffff 24 800] ------- [36:255 -1:255 32 0] 
r 0.130896783 _4_ RTR  --- 3 message 32 [0 ffffffff 24 800] ------- [36:255 -1:255 32 0] 
r 0.130896802 _17_ RTR  --- 3 message 32 [0 ffffffff 24 800] ------- [36:255 -1:255 32 0] 
r 0.130896806 _12_ RTR  --- 3 message 32 [0 ffffffff 24 800] ------- [36:255 -1:255 32 0] 
r 0.130896861 _16_ RTR  --- 3 message 32 [0 ffffffff 24 800] ------- [36:255 -1:255 32 0] 
r 0.130896884 _15_ RTR  --- 3 message 32 [0 ffffffff 24 800] ------- [36:255 -1:255 32 0] 
r 0.133373016 _32_ RTR  --- 4 message 32 [0 ffffffff 1c 800] ------- [28:255 -1:255 32 0] 
r 0.133373114 _6_ RTR  --- 4 message 32 [0 ffffffff 1c 800] ------- [28:255 -1:255 32 0] 
r 0.133373207 _5_ RTR  --- 4 message 32 [0 ffffffff 1c 800] ------- [28:255 -1:255 32 0] 
r 0.133373209 _9_ RTR  --- 4 message 32 [0 ffffffff 1c 800] ------- [28:255 -1:255 32 0] 
r 0.133373271 _29_ RTR  --- 4 message 32 [0 ffffffff 1c 800] ------- [28:255 -1:255 32 0] 
r 0.133373356 _16_ RTR  --- 4 message 32 [0 ffffffff 1c 800] ------- [28:255 -1:255 32 0] 
r 0.133373365 _19_ RTR  --- 4 message 32 [0 ffffffff 1c 800] ------- [28:255 -1:255 32 0] 
r 0.133373417 _1_ RTR  --- 4 message 32 [0 ffffffff 1c 800] ------- [28:255 -1:255 32 0] 
r 0.133373422 _23_ RTR  --- 4 message 32 [0 ffffffff 1c 800] ------- [28:255 -1:255 32 0] 
r 0.133373426 _2_ RTR  --- 4 message 32 [0 ffffffff 1c 800] ------- [28:255 -1:255 32 0] 
r 0.133373474 _34_ RTR  --- 4 message 32 [0 ffffffff 1c 800] ------- [28:255 -1:255 32 0] 
r 0.133373476 _36_ RTR  --- 4 message 32 [0 ffffffff 1c 800] ------- [28:255 -1:255 32 0] 
r 0.133373498 _27_ RTR  --- 4 message 32 [0 ffffffff 1c 800] ------- [28:255 -1:255 32 0] 
r 0.133373538 _37_ RTR  --- 4 message 32 [0 ffffffff 1c 800] ------- [28:255 -1:255 32 0] 
r 0.133373547 _4_ RTR  --- 4 message 32 [0 ffffffff 1c 800] ------- [28:255 -1:255 32 0] 
r 0.133373578 _12_ RTR  --- 4 message 32 [0 ffffffff 1c 800] ------- [28:255 -1:255 32 0] 
r 0.133373592 _22_ RTR  --- 4 message 32 [0 ffffffff 1c 800] ------- [28:255 -1:255 32 0] 
r 0.133373610 _18_ RTR  --- 4 message 32 [0 ffffffff 1c 800] ------- [28:255 -1:255 32 0] 
r 0.133373728 _30_ RTR  --- 4 message 32 [0 ffffffff 1c 800] ------- [28:255 -1:255 32 0] 
s 0.247164037 _15_ RTR  --- 5 message 32 [0 0 0 0] ------- [15:255 -1:255 32 0] 
r 0.250574173 _24_ RTR  --- 5 message 32 [0 ffffffff f 800] ------- [15:255 -1:255 32 0] 
r 0.250574198 _11_ RTR  --- 5 message 32 [0 ffffffff f 800] ------- [15:255 -1:255 32 0] 
r 0.250574227 _13_ RTR  --- 5 message 32 [0 ffffffff f 800] ------- [15:255 -1:255 32 0] 
r 0.250574267 _10_ RTR  --- 5 message 32 [0 ffffffff f 800] ------- [15:255 -1:255 32 0] 
r 0.250574340 _26_ RTR  --- 5 message 32 [0 ffffffff f 800] ------- [15:255 -1:255 32 0] 
r 0.250574341 _14_ RTR  --- 5 message 32 [0 ffffffff f 800] ------- [15:255 -1:255 32 0] 
r 0.250574398 _0_ RTR  --- 5 message 32 [0 ffffffff f 800] ------- [15:255 -1:255 32 0] 
r 0.250574477 _21_ RTR  --- 5 message 32 [0 ffffffff f 800] ------- [15:255 -1:255 32 0] 
r 0.250574503 _30_ RTR  --- 5 message 32 [0 ffffffff f 800] ------- [15:255 -1:255 32 0] 
r 0.250574577 _20_ RTR  --- 5 message 32 [0 ffffffff f 800] ------- [15:255 -1:255 32 0] 
r 0.250574597 _18_ RTR  --- 5 message 32 [0 ffffffff f 800] ------- [15:255 -1:255 32 0] 
r 0.250574599 _31_ RTR  --- 5 message 32 [0 ffffffff f 800] ------- [15:255 -1:255 32 0] 
r 0.250574701 _22_ RTR  --- 5 message 32 [0 ffffffff f 800] ------- [15:255 -1:255 32 0] 
r 0.250574728 _17_ RTR  --- 5 message 32 [0 ffffffff f 800] ------- [15:255 -1:255 32 0] 
r 0.250574752 _35_ RTR  --- 5 message 32 [0 ffffffff f 800] ------- [15:255 -1:255 32 0] 
r 0.250574761 _7_ RTR  --- 5 message 32 [0 ffffffff f 800] ------- [15:255 -1:255 32 0] 
r 0.250574804 _39_ RTR  --- 5 message 32 [0 ffffffff f 800] ------- [15:255 -1:255 32 0] 
r 0.250574824 _23_ RTR  --- 5 message 32 [0 ffffffff f 800] ------- [15:255 -1:255 32 0] 
r 0.250574845 _36_ RTR  --- 5 message 32 [0 ffffffff f 800] ------- [15:255 -1:255 32 0] 
s 0.321822596 _26_ RTR  --- 6 message 32 [0 0 0 0] ------- [26:255 -1:255 32 0] 
r 0.324272641 _14_ RTR  --- 6 message 32 [0 ffffffff 1a 800] ------- [26:255 -1:255 32 0] 
r 0.324272826 _13_ RTR  --- 6 message 32 [0 ffffffff 1a 800] ------- [26:255 -1:255 32 0] 
r 0.324272867 _10_ RTR  --- 6 message 32 [0 ffffffff 1a 800] ------- [26:255 -1:255 32 0] 
r 0.324272870 _21_ RTR  --- 6 message 32 [0 ffffffff 1a 800] ------- [26:255 -1:255 32 0] 
r 0.324272899 _15_ RTR  --- 6 message 32 [0 ffffffff 1a 800] ------- [26:255 -1:255 32 0] 
r 0.324273033 _11_ RTR  --- 6 message 32 [0 ffffffff 1a 800] ------- [26:255 -1:255 32 0] 
r 0.324273033 _24_ RTR  --- 6 message 32 [0 ffffffff 1a 800] ------- [26:255 -1:255 32 0] 
r 0.324273054 _20_ RTR  --- 6 message 32 [0 ffffffff 1a 800] ------- [26:255 -1:255 32 0] 
r 0.324273060 _31_ RTR  --- 6 message 32 [0 ffffffff 1a 800] ------- [26:255 -1:255 32 0] 
r 0.324273095 _7_ RTR  --- 6 message 32 [0 ffffffff 1a 800] ------- [26:255 -1:255 32 0] 
r 0.324273186 _0_ RTR  --- 6 message 32 [0 ffffffff 1a 800] ------- [26:255 -1:255 32 0] 
r 0.324273238 _39_ RTR  --- 6 message 32 [0 ffffffff 1a 800] ------- [26:255 -1:255 32 0] 
r 0.324273366 _30_ RTR  --- 6 message 32 [0 ffffffff 1a 800] ------- [26:255 -1:255 32 0] 
r 0.324273428 _35_ RTR  --- 6 message 32 [0 ffffffff 1a 800] ------- [26:255 -1:255 32 0] 
s 0.349191800 _3_ RTR  --- 7 message 32 [0 0 0 0] ------- [3:255 -1:255 32 0] 
r 0.352921921 _25_ RTR  --- 7 message 32 [0 ffffffff 3 800] ------- [3:255 -1:255 32 0] 
r 0.352921975 _33_ RTR  --- 7 message 32 [0 ffffffff 3 800] ------- [3:255 -1:255 32 0] 
r 0.352922048 _38_ RTR  --- 7 message 32 [0 ffffffff 3 800] ------- [3:255 -1:255 32 0] 
r 0.352922072 _35_ RTR  --- 7 message 32 [0 ffffffff 3 800] ------- [3:255 -1:255 32 0] 
r 0.352922223 _8_ RTR  --- 7 message 32 [0 ffffffff 3 800] ------- [3:255 -1:255 32 0] 
r 0.352922289 _12_ RTR  --- 7 message 32 [0 ffffffff 3 800] ------- [3:255 -1:255 32 0] 
r 0.352922321 _4_ RTR  --- 7 message 32 [0 ffffffff 3 800] ------- [3:255 -1:255 32 0] 
r 0.352922443 _2_ RTR  --- 7 message 32 [0 ffffffff 3 800] ------- [3:255 -1:255 32 0] 
r 0.352922450 _1_ RTR  --- 7 message 32 [0 ffffffff 3 800] ------- [3:255 -1:255 32 0] 
r 0.352922477 _0_ RTR  --- 7 message 32 [0 ffffffff 3 800] ------- [3:255 -1:255 32 0] 
r 0.352922486 _37_ RTR  --- 7 message 32 [0 ffffffff 3 800] ------- [3:255 -1:255 32 0] 
r 0.352922492 _20_ RTR  --- 7 message 32 [0 ffffffff 3 800] ------- [3:255 -1:255 32 0] 
r 0.352922507 _19_ RTR  --- 7 message 32 [0 ffffffff 3 800] ------- [3:255 -1:255 32 0] 
r 0.352922507 _39_ RTR  --- 7 message 32 [0 ffffffff 3 800] ------- [3:255 -1:255 32 0] 
r 0.352922508 _31_ RTR  --- 7 message 32 [0 ffffffff 3 800] ------- [3:255 -1:255 32 0] 
r 0.352922538 _27_ RTR  --- 7 message 32 [0 ffffffff 3 800] ------- [3:255 -1:255 32 0] 
r 0.352922556 _23_ RTR  --- 7 message 32 [0 ffffffff 3 800] ------- [3:255 -1:255 32 0] 
r 0.352922564 _16_ RTR  --- 7 message 32 [0 ffffffff 3 800] ------- [3:255 -1:255 32 0] 
r 0.352922624 _18_ RTR  --- 7 message 32 [0 ffffffff 3 800] ------- [3:255 -1:255 32 0] 
s 0.356017125 _29_ RTR  --- 8 message 32 [0 0 0 0] ------- [29:255 -1:255 32 0] 
r 0.359427335 _34_ RTR  --- 8 message 32 [0 ffffffff 1d 800] ------- [29:255 -1:255 32 0] 
r 0.359427475 _6_ RTR  --- 8 message 32 [0 ffffffff 1d 800] ------- [29:255 -1:255 32 0] 
r 0.359427491 _28_ RTR  --- 8 message 32 [0 ffffffff 1d 800] ------- [29:255 -1:255 32 0] 
r 0.359427504 _36_ RTR  --- 8 message 32 [0 ffffffff 1d 800] ------- [29:255 -1:255 32 0] 
r 0.359427596 _32_ RTR  --- 8 message 32 [0 ffffffff 1d 800] ------- [29:255 -1:255 32 0] 
r 0.359427649 _22_ RTR  --- 8 message 32 [0 ffffffff 1d 800] ------- [29:255 -1:255 32 0] 
r 0.359427689 _5_ RTR  --- 8 message 32 [0 ffffffff 1d 800] ------- [29:255 -1:255 32 0] 
r 0.359427692 _9_ RTR  --- 8 message 32 [0 ffffffff 1d 800] ------- [29:255 -1:255 32 0] 
r 0.359427742 _23_ RTR  --- 8 message 32 [0 ffffffff 1d 800] ------- [29:255 -1:255 32 0] 
r 0.359427795 _19_ RTR  --- 8 message 32 [0 ffffffff 1d 800] ------- [29:255 -1:255 32 0] 
r 0.359427813 _18_ RTR  --- 8 message 32 [0 ffffffff 1d 800] ------- [29:255 -1:255 32 0] 
r 0.359427842 _30_ RTR  --- 8 message 32 [0 ffffffff 1d 800] ------- [29:255 -1:255 32 0] 
r 0.359427853 _1_ RTR  --- 8 message 32 [0 ffffffff 1d 800] ------- [29:255 -1:255 32 0] 
r 0.359427858 _2_ RTR  --- 8 message 32 [0 ffffffff 1d 800] ------- [29:255 -1:255 32 0] 
r 0.359427895 _16_ RTR  --- 8 message 32 [0 ffffffff 1d 800] ------- [29:255 -1:255 32 0] 
s 0.421784672 _10_ RTR  --- 9 message 32 [0 0 0 0] ------- [10:255 -1:255 32 0] 
r 0.425514902 _15_ RTR  --- 9 message 32 [0 ffffffff a 800] ------- [10:255 -1:255 32 0] 
r 0.425514910 _14_ RTR  --- 9 message 32 [0 ffffffff a 800] ------- [10:255 -1:255 32 0] 
r 0.425514925 _11_ RTR  --- 9 message 32 [0 ffffffff a 800] ------- [10:255 -1:255 32 0] 
r 0.425514943 _26_ RTR  --- 9 message 32 [0 ffffffff a 800] ------- [10:255 -1:255 32 0] 
r 0.425514969 _24_ RTR  --- 9 message 32 [0 ffffffff a 800] ------- [10:255 -1:255 32 0] 
r 0.425515014 _13_ RTR  --- 9 message 32 [0 ffffffff a 800] ------- [10:255 -1:255 32 0] 
r 0.425515193 _21_ RTR  --- 9 message 32 [0 ffffffff a 800] ------- [10:255 -1:255 32 0] 
r 0.425515262 _0_ RTR  --- 9 message 32 [0 ffffffff a 800] ------- [10:255 -1:255 32 0] 
r 0.425515294 _17_ RTR  --- 9 message 32 [0 ffffffff a 800] ------- [10:255 -1:255 32 0] 
r 0.425515298 _30_ RTR  --- 9 message 32 [0 ffffffff a 800] ------- [10:255 -1:255 32 0] 
r 0.425515349 _20_ RTR  --- 9 message 32 [0 ffffffff a 800] ------- [10:255 -1:255 32 0] 
r 0.425515363 _31_ RTR  --- 9 message 32 [0 ffffffff a 800] ------- [10:255 -1:255 32 0] 
r 0.425515430 _18_ RTR  --- 9 message 32 [0 ffffffff a 800] ------- [10:255 -1:255 32 0] 
r 0.425515440 _7_ RTR  --- 9 message 32 [0 ffffffff a 800] ------- [10:255 -1:255 32 0] 
r 0.425515473 _22_ RTR  --- 9 message 32 [0 ffffffff a 800] ------- [10:255 -1:255 32 0] 
s 0.429968552 _17_ RTR  --- 10 message 32 [0 0 0 0] ------- [17:255 -1:255 32 0] 
r 0.434019089 _11_ RTR  --- 10 message 32 [0 ffffffff 11 800] ------- [17:255 -1:255 32 0] 
r 0.434019148 _24_ RTR  --- 10 message 32 [0 ffffffff 11 800] ------- [17:255 -1:255 32 0] 
r 0.434019173 _30_ RTR  --- 10 message 32 [0 ffffffff 11 800] ------- [17:255 -1:255 32 0] 
r 0.434019174 _10_ RTR  --- 10 message 32 [0 ffffffff 11 800] ------- [17:255 -1:255 32 0] 
r 0.434019186 _22_ RTR  --- 10 message 32 [0 ffffffff 11 800] ------- [17:255 -1:255 32 0] 
r 0.434019243 _15_ RTR  --- 10 message 32 [0 ffffffff 11 800] ------- [17:255 -1:255 32 0] 
r 0.434019277 _36_ RTR  --- 10 message 32 [0 ffffffff 11 800] ------- [17:255 -1:255 32 0] 
r 0.434019368 _18_ RTR  --- 10 message 32 [0 ffffffff 11 800] ------- [17:255 -1:255 32 0] 
s 0.454435365 _34_ RTR  --- 11 message 32 [0 0 0 0] ------- [34:255 -1:255 32 0] 
r 0.458165576 _29_ RTR  --- 11 message 32 [0 ffffffff 22 800] ------- [34:255 -1:255 32 0] 
r 0.458165700 _36_ RTR  --- 11 message 32 [0 ffffffff 22 800] ------- [34:255 -1:255 32 0] 
r 0.458165830 _22_ RTR  --- 11 message 32 [0 ffffffff 22 800] ------- [34:255 -1:255 32 0] 
r 0.458165873 _6_ RTR  --- 11 message 32 [0 ffffffff 22 800] ------- [34:255 -1:255 32 0] 
r 0.458165935 _28_ RTR  --- 11 message 32 [0 ffffffff 22 800] ------- [34:255 -1:255 32 0] 
r 0.458166035 _32_ RTR  --- 11 message 32 [0 ffffffff 22 800] ------- [34:255 -1:255 32 0] 
r 0.458166035 _30_ RTR  --- 11 message 32 [0 ffffffff 22 800] ------- [34:255 -1:255 32 0] 
r 0.458166065 _18_ RTR  --- 11 message 32 [0 ffffffff 22 800] ------- [34:255 -1:255 32 0] 
r 0.458166067 _23_ RTR  --- 11 message 32 [0 ffffffff 22 800] ------- [34:255 -1:255 32 0] 
r 0.458166088 _5_ RTR  --- 11 message 32 [0 ffffffff 22 800] ------- [34:255 -1:255 32 0] 
r 0.458166091 _9_ RTR  --- 11 message 32 [0 ffffffff 22 800] ------- [34:255 -1:255 32 0] 
r 0.458166163 _19_ RTR  --- 11 message 32 [0 ffffffff 22 800] ------- [34:255 -1:255 32 0] 
s 0.474672686 _27_ RTR  --- 12 message 32 [0 0 0 0] ------- [27:255 -1:255 32 0] 
r 0.477122741 _37_ RTR  --- 12 message 32 [0 ffffffff 1b 800] ------- [27:255 -1:255 32 0] 
r 0.477122855 _16_ RTR  --- 12 message 32 [0 ffffffff 1b 800] ------- [27:255 -1:255 32 0] 
r 0.477123012 _8_ RTR  --- 12 message 32 [0 ffffffff 1b 800] ------- [27:255 -1:255 32 0] 
r 0.477123070 _1_ RTR  --- 12 message 32 [0 ffffffff 1b 800] ------- [27:255 -1:255 32 0] 
r 0.477123074 _9_ RTR  --- 12 message 32 [0 ffffffff 1b 800] ------- [27:255 -1:255 32 0] 
r 0.477123077 _5_ RTR  --- 12 message 32 [0 ffffffff 1b 800] ------- [27:255 -1:255 32 0] 
r 0.477123077 _2_ RTR  --- 12 message 32 [0 ffffffff 1b 800] ------- [27:255 -1:255 32 0] 
r 0.477123090 _19_ RTR  --- 12 message 32 [0 ffffffff 1b 800] ------- [27:255 -1:255 32 0] 
r 0.477123097 _4_ RTR  --- 12 message 32 [0 ffffffff 1b 800] ------- [27:255 -1:255 32 0] 
r 0.477123110 _12_ RTR  --- 12 message 32 [0 ffffffff 1b 800] ------- [27:255 -1:255 32 0] 
r 0.477123170 _32_ RTR  --- 12 message 32 [0 ffffffff 1b 800] ------- [27:255 -1:255 32 0] 
r 0.477123232 _38_ RTR  --- 12 message 32 [0 ffffffff 1b 800] ------- [27:255 -1:255 32 0] 
r 0.477123275 _23_ RTR  --- 12 message 32 [0 ffffffff 1b 800] ------- [27:255 -1:255 32 0] 
r 0.477123280 _28_ RTR  --- 12 message 32 [0 ffffffff 1b 800] ------- [27:255 -1:255 32 0] 
r 0.477123286 _6_ RTR  --- 12 message 32 [0 ffffffff 1b 800] ------- [27:255 -1:255 32 0] 
r 0.477123305 _25_ RTR  --- 12 message 32 [0 ffffffff 1b 800] ------- [27:255 -1:255 32 0] 
r 0.477123424 _3_ RTR  --- 12 message 32 [0 ffffffff 1b 800] ------- [27:255 -1:255 32 0] 
r 0.477123491 _35_ RTR  --- 12 message 32 [0 ffffffff 1b 800] ------- [27:255 -1:255 32 0] 
r 0.477123511 _18_ RTR  --- 12 message 32 [0 ffffffff 1b 800] ------- [27:255 -1:255 32 0] 
s 0.671962519 _14_ RTR  --- 13 message 32 [0 0 0 0] ------- [14:255 -1:255 32 0] 
r 0.676652564 _26_ RTR  --- 13 message 32 [0 ffffffff e 800] ------- [14:255 -1:255 32 0] 
r 0.676652758 _10_ RTR  --- 13 message 32 [0 ffffffff e 800] ------- [14:255 -1:255 32 0] 
r 0.676652778 _13_ RTR  --- 13 message 32 [0 ffffffff e 800] ------- [14:255 -1:255 32 0] 
r 0.676652823 _15_ RTR  --- 13 message 32 [0 ffffffff e 800] ------- [14:255 -1:255 32 0] 
r 0.676652837 _21_ RTR  --- 13 message 32 [0 ffffffff e 800] ------- [14:255 -1:255 32 0] 
r 0.676652944 _11_ RTR  --- 13 message 32 [0 ffffffff e 800] ------- [14:255 -1:255 32 0] 
r 0.676652952 _24_ RTR  --- 13 message 32 [0 ffffffff e 800] ------- [14:255 -1:255 32 0] 
r 0.676653022 _20_ RTR  --- 13 message 32 [0 ffffffff e 800] ------- [14:255 -1:255 32 0] 
r 0.676653028 _31_ RTR  --- 13 message 32 [0 ffffffff e 800] ------- [14:255 -1:255 32 0] 
r 0.676653055 _7_ RTR  --- 13 message 32 [0 ffffffff e 800] ------- [14:255 -1:255 32 0] 
r 0.676653131 _0_ RTR  --- 13 message 32 [0 ffffffff e 800] ------- [14:255 -1:255 32 0] 
r 0.676653206 _39_ RTR  --- 13 message 32 [0 ffffffff e 800] ------- [14:255 -1:255 32 0] 
r 0.676653289 _30_ RTR  --- 13 message 32 [0 ffffffff e 800] ------- [14:255 -1:255 32 0] 
s 0.684226311 _37_ RTR  --- 14 message 32 [0 0 0 0] ------- [37:255 -1:255 32 0] 
r 0.688276365 _27_ RTR  --- 14 message 32 [0 ffffffff 25 800] ------- [37:255 -1:255 32 0] 
r 0.688276503 _16_ RTR  --- 14 message 32 [0 ffffffff 25 800] ------- [37:255 -1:255 32 0] 
r 0.688276582 _8_ RTR  --- 14 message 32 [0 ffffffff 25 800] ------- [37:255 -1:255 32 0] 
r 0.688276686 _1_ RTR  --- 14 message 32 [0 ffffffff 25 800] ------- [37:255 -1:255 32 0] 
r 0.688276692 _2_ RTR  --- 14 message 32 [0 ffffffff 25 800] ------- [37:255 -1:255 32 0] 
r 0.688276696 _4_ RTR  --- 14 message 32 [0 ffffffff 25 800] ------- [37:255 -1:255 32 0] 
r 0.688276705 _12_ RTR  --- 14 message 32 [0 ffffffff 25 800] ------- [37:255 -1:255 32 0] 
r 0.688276714 _19_ RTR  --- 14 message 32 [0 ffffffff 25 800] ------- [37:255 -1:255 32 0] 
r 0.688276719 _9_ RTR  --- 14 message 32 [0 ffffffff 25 800] ------- [37:255 -1:255 32 0] 
r 0.688276722 _5_ RTR  --- 14 message 32 [0 ffffffff 25 800] ------- [37:255 -1:255 32 0] 
r 0.688276810 _38_ RTR  --- 14 message 32 [0 ffffffff 25 800] ------- [37:255 -1:255 32 0] 
r 0.688276835 _32_ RTR  --- 14 message 32 [0 ffffffff 25 800] ------- [37:255 -1:255 32 0] 
r 0.688276878 _25_ RTR  --- 14 message 32 [0 ffffffff 25 800] ------- [37:255 -1:255 32 0] 
r 0.688276896 _23_ RTR  --- 14 message 32 [0 ffffffff 25 800] ------- [37:255 -1:255 32 0] 
r 0.688276936 _6_ RTR  --- 14 message 32 [0 ffffffff 25 800] ------- [37:255 -1:255 32 0] 
r 0.688276944 _28_ RTR  --- 14 message 32 [0 ffffffff 25 800] ------- [37:255 -1:255 32 0] 
r 0.688276997 _3_ RTR  --- 14 message 32 [0 ffffffff 25 800] ------- [37:255 -1:255 32 0] 
r 0.688277072 _35_ RTR  --- 14 message 32 [0 ffffffff 25 800] ------- [37:255 -1:255 32 0] 
r 0.688277126 _18_ RTR  --- 14 message 32 [0 ffffffff 25 800] ------- [37:255 -1:255 32 0] 
s 0.820392893 _20_ RTR  --- 15 message 32 [0 0 0 0] ------- [20:255 -1:255 32 0] 
r 0.824122923 _31_ RTR  --- 15 message 32 [0 ffffffff 14 800] ------- [20:255 -1:255 32 0] 
r 0.824123091 _21_ RTR  --- 15 message 32 [0 ffffffff 14 800] ------- [20:255 -1:255 32 0] 
r 0.824123122 _39_ RTR  --- 15 message 32 [0 ffffffff 14 800] ------- [20:255 -1:255 32 0] 
r 0.824123219 _7_ RTR  --- 15 message 32 [0 ffffffff 14 800] ------- [20:255 -1:255 32 0] 
r 0.824123246 _13_ RTR  --- 15 message 32 [0 ffffffff 14 800] ------- [20:255 -1:255 32 0] 
r 0.824123351 _26_ RTR  --- 15 message 32 [0 ffffffff 14 800] ------- [20:255 -1:255 32 0] 
r 0.824123389 _35_ RTR  --- 15 message 32 [0 ffffffff 14 800] ------- [20:255 -1:255 32 0] 
r 0.824123395 _14_ RTR  --- 15 message 32 [0 ffffffff 14 800] ------- [20:255 -1:255 32 0] 
r 0.824123414 _0_ RTR  --- 15 message 32 [0 ffffffff 14 800] ------- [20:255 -1:255 32 0] 
r 0.824123433 _15_ RTR  --- 15 message 32 [0 ffffffff 14 800] ------- [20:255 -1:255 32 0] 
r 0.824123530 _33_ RTR  --- 15 message 32 [0 ffffffff 14 800] ------- [20:255 -1:255 32 0] 
r 0.824123541 _24_ RTR  --- 15 message 32 [0 ffffffff 14 800] ------- [20:255 -1:255 32 0] 
r 0.824123569 _10_ RTR  --- 15 message 32 [0 ffffffff 14 800] ------- [20:255 -1:255 32 0] 
r 0.824123584 _3_ RTR  --- 15 message 32 [0 ffffffff 14 800] ------- [20:255 -1:255 32 0] 
r 0.824123590 _11_ RTR  --- 15 message 32 [0 ffffffff 14 800] ------- [20:255 -1:255 32 0] 
r 0.824123656 _25_ RTR  --- 15 message 32 [0 ffffffff 14 800] ------- [20:255 -1:255 32 0] 
r 0.824123656 _38_ RTR  --- 15 message 32 [0 ffffffff 14 800] ------- [20:255 -1:255 32 0] 
s 0.850035071 _19_ RTR  --- 16 message 32 [0 0 0 0] ------- [19:255 -1:255 32 0] 
r 0.854725129 _1_ RTR  --- 16 message 32 [0 ffffffff 13 800] ------- [19:255 -1:255 32 0] 
r 0.854725135 _2_ RTR  --- 16 message 32 [0 ffffffff 13 800] ------- [19:255 -1:255 32 0] 
r 0.854725234 _9_ RTR  --- 16 message 32 [0 ffffffff 13 800] ------- [19:255 -1:255 32 0] 
r 0.854725235 _5_ RTR  --- 16 message 32 [0 ffffffff 13 800] ------- [19:255 -1:255 32 0] 
r 0.854725256 _23_ RTR  --- 16 message 32 [0 ffffffff 13 800] ------- [19:255 -1:255 32 0] 
r 0.854725257 _4_ RTR  --- 16 message 32 [0 ffffffff 13 800] ------- [19:255 -1:255 32 0] 
r 0.854725288 _12_ RTR  --- 16 message 32 [0 ffffffff 13 800] ------- [19:255 -1:255 32 0] 
r 0.854725328 _16_ RTR  --- 16 message 32 [0 ffffffff 13 800] ------- [19:255 -1:255 32 0] 
r 0.854725396 _6_ RTR  --- 16 message 32 [0 ffffffff 13 800] ------- [19:255 -1:255 32 0] 
r 0.854725469 _32_ RTR  --- 16 message 32 [0 ffffffff 13 800] ------- [19:255 -1:255 32 0] 
r 0.854725474 _37_ RTR  --- 16 message 32 [0 ffffffff 13 800] ------- [19:255 -1:255 32 0] 
r 0.854725475 _27_ RTR  --- 16 message 32 [0 ffffffff 13 800] ------- [19:255 -1:255 32 0] 
r 0.854725496 _18_ RTR  --- 16 message 32 [0 ffffffff 13 800] ------- [19:255 -1:255 32 0] 
r 0.854725530 _38_ RTR  --- 16 message 32 [0 ffffffff 13 800] ------- [19:255 -1:255 32 0] 
r 0.854725531 _28_ RTR  --- 16 message 32 [0 ffffffff 13 800] ------- [19:255 -1:255 32 0] 
r 0.854725544 _8_ RTR  --- 16 message 32 [0 ffffffff 13 800] ------- [19:255 -1:255 32 0] 
r 0.854725647 _36_ RTR  --- 16 message 32 [0 ffffffff 13 800] ------- [19:255 -1:255 32 0] 
r 0.854725668 _22_ RTR  --- 16 message 32 [0 ffffffff 13 800] ------- [19:255 -1:255 32 0] 
r 0.854725670 _25_ RTR  --- 16 message 32 [0 ffffffff 13 800] ------- [19:255 -1:255 32 0] 
r 0.854725683 _30_ RTR  --- 16 message 32 [0 ffffffff 13 800] ------- [19:255 -1:255 32 0] 
r 0.854725685 _0_ RTR  --- 16 message 32 [0 ffffffff 13 800] ------- [19:255 -1:255 32 0] 
r 0.854725696 _35_ RTR  --- 16 message 32 [0 ffffffff 13 800] ------- [19:255 -1:255 32 0] 
r 0.854725740 _29_ RTR  --- 16 message 32 [0 ffffffff 13 800] ------- [19:255 -1:255 32 0] 
r 0.854725777 _3_ RTR  --- 16 message 32 [0 ffffffff 13 800] ------- [19:255 -1:255 32 0] 
r 0.854725869 _34_ RTR  --- 16 message 32 [0 ffffffff 13 800] ------- [19:255 -1:255 32 0] 
s 0.869383415 _18_ RTR  --- 17 message 32 [0 0 0 0] ------- [18:255 -1:255 32 0] 
r 0.872793611 _30_ RTR  --- 17 message 32 [0 ffffffff 12 800] ------- [18:255 -1:255 32 0] 
r 0.872793659 _23_ RTR  --- 17 message 32 [0 ffffffff 12 800] ------- [18:255 -1:255 32 0] 
r 0.872793699 _22_ RTR  --- 17 message 32 [0 ffffffff 12 800] ------- [18:255 -1:255 32 0] 
r 0.872793731 _0_ RTR  --- 17 message 32 [0 ffffffff 12 800] ------- [18:255 -1:255 32 0] 
r 0.872793784 _36_ RTR  --- 17 message 32 [0 ffffffff 12 800] ------- [18:255 -1:255 32 0] 
r 0.872793840 _19_ RTR  --- 17 message 32 [0 ffffffff 12 800] ------- [18:255 -1:255 32 0] 
r 0.872793850 _2_ RTR  --- 17 message 32 [0 ffffffff 12 800] ------- [18:255 -1:255 32 0] 
r 0.872793856 _1_ RTR  --- 17 message 32 [0 ffffffff 12 800] ------- [18:255 -1:255 32 0] 
r 0.872793876 _4_ RTR  --- 17 message 32 [0 ffffffff 12 800] ------- [18:255 -1:255 32 0] 
r 0.872793877 _24_ RTR  --- 17 message 32 [0 ffffffff 12 800] ------- [18:255 -1:255 32 0] 
r 0.872793887 _12_ RTR  --- 17 message 32 [0 ffffffff 12 800] ------- [18:255 -1:255 32 0] 
r 0.872793912 _6_ RTR  --- 17 message 32 [0 ffffffff 12 800] ------- [18:255 -1:255 32 0] 
r 0.872793930 _11_ RTR  --- 17 message 32 [0 ffffffff 12 800] ------- [18:255 -1:255 32 0] 
r 0.872793939 _5_ RTR  --- 17 message 32 [0 ffffffff 12 800] ------- [18:255 -1:255 32 0] 
r 0.872793940 _9_ RTR  --- 17 message 32 [0 ffffffff 12 800] ------- [18:255 -1:255 32 0] 
r 0.872793976 _15_ RTR  --- 17 message 32 [0 ffffffff 12 800] ------- [18:255 -1:255 32 0] 
r 0.872794021 _35_ RTR  --- 17 message 32 [0 ffffffff 12 800] ------- [18:255 -1:255 32 0] 
r 0.872794040 _38_ RTR  --- 17 message 32 [0 ffffffff 12 800] ------- [18:255 -1:255 32 0] 
r 0.872794059 _13_ RTR  --- 17 message 32 [0 ffffffff 12 800] ------- [18:255 -1:255 32 0] 
r 0.872794097 _16_ RTR  --- 17 message 32 [0 ffffffff 12 800] ------- [18:255 -1:255 32 0] 