s 0.009742135 _12_ RTR  --- 0 message 32 [0 0 0 0] ------- [12:255 -1:255 32 0] 
r 0.013152281 _74_ RTR  --- 0 message 32 [0 ffffffff c 800] ------- [12:255 -1:255 32 0] 
r 0.013152289 _76_ RTR  --- 0 message 32 [0 ffffffff c 800] ------- [12:255 -1:255 32 0] 
r 0.013152296 _54_ RTR  --- 0 message 32 [0 ffffffff c 800] ------- [12:255 -1:255 32 0] 
r 0.013152317 _48_ RTR  --- 0 message 32 [0 ffffffff c 800] ------- [12:255 -1:255 32 0] 
r 0.013152329 _8_ RTR  --- 0 message 32 [0 ffffffff c 800] ------- [12:255 -1:255 32 0] 
r 0.013152363 _11_ RTR  --- 0 message 32 [0 ffffffff c 800] ------- [12:255 -1:255 32 0] 
r 0.013152366 _41_ RTR  --- 0 message 32 [0 ffffffff c 800] ------- [12:255 -1:255 32 0] 
r 0.013152377 _7_ RTR  --- 0 message 32 [0 ffffffff c 800] ------- [12:255 -1:255 32 0] 
r 0.013152400 _35_ RTR  --- 0 message 32 [0 ffffffff c 800] ------- [12:255 -1:255 32 0] 
r 0.013152406 _29_ RTR  --- 0 message 32 [0 ffffffff c 800] ------- [12:255 -1:255 32 0] 
r 0.013152446 _2_ RTR  --- 0 message 32 [0 ffffffff c 800] ------- [12:255 -1:255 32 0] 
r 0.013152453 _13_ RTR  --- 0 message 32 [0 ffffffff c 800] ------- [12:255 -1:255 32 0] 
r 0.013152457 _75_ RTR  --- 0 message 32 [0 ffffffff c 800] ------- [12:255 -1:255 32 0] 
r 0.013152486 _9_ RTR  --- 0 message 32 [0 ffffffff c 800] ------- [12:255 -1:255 32 0] 
r 0.013152492 _55_ RTR  --- 0 message 32 [0 ffffffff c 800] ------- [12:255 -1:255 32 0] 
r 0.013152501 _49_ RTR  --- 0 message 32 [0 ffffffff c 800] ------- [12:255 -1:255 32 0] 
r 0.013152528 _68_ RTR  --- 0 message 32 [0 ffffffff c 800] ------- [12:255 -1:255 32 0] 
r 0.013152541 _70_ RTR  --- 0 message 32 [0 ffffffff c 800] ------- [12:255 -1:255 32 0] 
r 0.013152578 _37_ RTR  --- 0 message 32 [0 ffffffff c 800] ------- [12:255 -1:255 32 0] 
r 0.013152602 _34_ RTR  --- 0 message 32 [0 ffffffff c 800] ------- [12:255 -1:255 32 0] 
r 0.013152629 _72_ RTR  --- 0 message 32 [0 ffffffff c 800] ------- [12:255 -1:255 32 0] 
r 0.013152636 _1_ RTR  --- 0 message 32 [0 ffffffff c 800] ------- [12:255 -1:255 32 0] 
r 0.013152654 _38_ RTR  --- 0 message 32 [0 ffffffff c 800] ------- [12:255 -1:255 32 0] 
r 0.013152670 _53_ RTR  --- 0 message 32 [0 ffffffff c 800] ------- [12:255 -1:255 32 0] 
r 0.013152675 _58_ RTR  --- 0 message 32 [0 ffffffff c 800] ------- [12:255 -1:255 32 0] 
r 0.013152686 _5_ RTR  --- 0 message 32 [0 ffffffff c 800] ------- [12:255 -1:255 32 0] 
r 0.013152703 _43_ RTR  --- 0 message 32 [0 ffffffff c 800] ------- [12:255 -1:255 32 0] 
r 0.013152750 _39_ RTR  --- 0 message 32 [0 ffffffff c 800] ------- [12:255 -1:255 32 0] 
r 0.013152770 _27_ RTR  --- 0 message 32 [0 ffffffff c 800] ------- [12:255 -1:255 32 0] 
r 0.013152815 _51_ RTR  --- 0 message 32 [0 ffffffff c 800] ------- [12:255 -1:255 32 0] 
r 0.013152822 _73_ RTR  --- 0 message 32 [0 ffffffff c 800] ------- [12:255 -1:255 32 0] 
r 0.013152849 _33_ RTR  --- 0 message 32 [0 ffffffff c 800] ------- [12:255 -1:255 32 0] 
r 0.013152865 _17_ RTR  --- 0 message 32 [0 ffffffff c 800] ------- [12:255 -1:255 32 0] 
r 0.013152879 _67_ RTR  --- 0 message 32 [0 ffffffff c 800] ------- [12:255 -1:255 32 0] 
r 0.013152882 _56_ RTR  --- 0 message 32 [0 ffffffff c 800] ------- [12:255 -1:255 32 0] 
r 0.013152905 _59_ RTR  --- 0 message 32 [0 ffffffff c 800] ------- [12:255 -1:255 32 0] 
r 0.013152927 _30_ RTR  --- 0 message 32 [0 ffffffff c 800] ------- [12:255 -1:255 32 0] 
r 0.013152927 _47_ RTR  --- 0 message 32 [0 ffffffff c 800] ------- [12:255 -1:255 32 0] 
r 0.013152939 _57_ RTR  --- 0 message 32 [0 ffffffff c 800] ------- [12:255 -1:255 32 0] 
r 0.013152945 _16_ RTR  --- 0 message 32 [0 ffffffff c 800] ------- [12:255 -1:255 32 0] 
r 0.013152958 _60_ RTR  --- 0 message 32 [0 ffffffff c 800] ------- [12:255 -1:255 32 0] 
s 0.021747082 _25_ RTR  --- 1 message 32 [0 0 0 0] ------- [25:255 -1:255 32 0] 
r 0.026437207 _44_ RTR  --- 1 message 32 [0 ffffffff 19 800] ------- [25:255 -1:255 32 0] 
r 0.026437257 _63_ RTR  --- 1 message 32 [0 ffffffff 19 800] ------- [25:255 -1:255 32 0] 
r 0.026437299 _28_ RTR  --- 1 message 32 [0 ffffffff 19 800] ------- [25:255 -1:255 32 0] 
r 0.026437303 _69_ RTR  --- 1 message 32 [0 ffffffff 19 800] ------- [25:255 -1:255 32 0] 
r 0.026437340 _46_ RTR  --- 1 message 32 [0 ffffffff 19 800] ------- [25:255 -1:255 32 0] 
r 0.026437354 _77_ RTR  --- 1 message 32 [0 ffffffff 19 800] ------- [25:255 -1:255 32 0] 
r 0.026437365 _40_ RTR  --- 1 message 32 [0 ffffffff 19 800] ------- [25:255 -1:255 32 0] 
r 0.026437383 _4_ RTR  --- 1 message 32 [0 ffffffff 19 800] ------- [25:255 -1:255 32 0] 
r 0.026437412 _15_ RTR  --- 1 message 32 [0 ffffffff 19 800] ------- [25:255 -1:255 32 0] 
r 0.026437417 _79_ RTR  --- 1 message 32 [0 ffffffff 19 800] ------- [25:255 -1:255 32 0] 
r 0.026437435 _18_ RTR  --- 1 message 32 [0 ffffffff 19 800] ------- [25:255 -1:255 32 0] 
r 0.026437443 _61_ RTR  --- 1 message 32 [0 ffffffff 19 800] ------- [25:255 -1:255 32 0] 
r 0.026437456 _24_ RTR  --- 1 message 32 [0 ffffffff 19 800] ------- [25:255 -1:255 32 0] 
r 0.026437564 _23_ RTR  --- 1 message 32 [0 ffffffff 19 800] ------- [25:255 -1:255 32 0] 
r 0.026437672 _60_ RTR  --- 1 message 32 [0 ffffffff 19 800] ------- [25:255 -1:255 32 0] 
r 0.026437676 _26_ RTR  --- 1 message 32 [0 ffffffff 19 800] ------- [25:255 -1:255 32 0] 
r 0.026437683 _14_ RTR  --- 1 message 32 [0 ffffffff 19 800] ------- [25:255 -1:255 32 0] 
r 0.026437720 _78_ RTR  --- 1 message 32 [0 ffffffff 19 800] ------- [25:255 -1:255 32 0] 
r 0.026437736 _20_ RTR  --- 1 message 32 [0 ffffffff 19 800] ------- [25:255 -1:255 32 0] 
r 0.026437779 _32_ RTR  --- 1 message 32 [0 ffffffff 19 800] ------- [25:255 -1:255 32 0] 
r 0.026437780 _3_ RTR  --- 1 message 32 [0 ffffffff 19 800] ------- [25:255 -1:255 32 0] 
r 0.026437791 _6_ RTR  --- 1 message 32 [0 ffffffff 19 800] ------- [25:255 -1:255 32 0] 
r 0.026437807 _27_ RTR  --- 1 message 32 [0 ffffffff 19 800] ------- [25:255 -1:255 32 0] 
r 0.026437819 _64_ RTR  --- 1 message 32 [0 ffffffff 19 800] ------- [25:255 -1:255 32 0] 
r 0.026437857 _21_ RTR  --- 1 message 32 [0 ffffffff 19 800] ------- [25:255 -1:255 32 0] 
r 0.026437903 _47_ RTR  --- 1 message 32 [0 ffffffff 19 800] ------- [25:255 -1:255 32 0] 
r 0.026437906 _65_ RTR  --- 1 message 32 [0 ffffffff 19 800] ------- [25:255 -1:255 32 0] 
s 0.042381530 _20_ RTR  --- 2 message 32 [0 0 0 0] ------- [20:255 -1:255 32 0] 
r 0.047071652 _21_ RTR  --- 2 message 32 [0 ffffffff 14 800] ------- [20:255 -1:255 32 0] 
r 0.047071688 _60_ RTR  --- 2 message 32 [0 ffffffff 14 800] ------- [20:255 -1:255 32 0] 
r 0.047071697 _47_ RTR  --- 2 message 32 [0 ffffffff 14 800] ------- [20:255 -1:255 32 0] 
r 0.047071709 _65_ RTR  --- 2 message 32 [0 ffffffff 14 800] ------- [20:255 -1:255 32 0] 
r 0.047071728 _57_ RTR  --- 2 message 32 [0 ffffffff 14 800] ------- [20:255 -1:255 32 0] 
r 0.047071828 _61_ RTR  --- 2 message 32 [0 ffffffff 14 800] ------- [20:255 -1:255 32 0] 
r 0.047071832 _18_ RTR  --- 2 message 32 [0 ffffffff 14 800] ------- [20:255 -1:255 32 0] 
r 0.047071864 _27_ RTR  --- 2 message 32 [0 ffffffff 14 800] ------- [20:255 -1:255 32 0] 
r 0.047071869 _24_ RTR  --- 2 message 32 [0 ffffffff 14 800] ------- [20:255 -1:255 32 0] 
r 0.047071875 _15_ RTR  --- 2 message 32 [0 ffffffff 14 800] ------- [20:255 -1:255 32 0] 
r 0.047071884 _4_ RTR  --- 2 message 32 [0 ffffffff 14 800] ------- [20:255 -1:255 32 0] 
r 0.047071921 _56_ RTR  --- 2 message 32 [0 ffffffff 14 800] ------- [20:255 -1:255 32 0] 
r 0.047071959 _77_ RTR  --- 2 message 32 [0 ffffffff 14 800] ------- [20:255 -1:255 32 0] 
r 0.047071961 _40_ RTR  --- 2 message 32 [0 ffffffff 14 800] ------- [20:255 -1:255 32 0] 
r 0.047072010 _70_ RTR  --- 2 message 32 [0 ffffffff 14 800] ------- [20:255 -1:255 32 0] 
r 0.047072020 _28_ RTR  --- 2 message 32 [0 ffffffff 14 800] ------- [20:255 -1:255 32 0] 
r 0.047072044 _68_ RTR  --- 2 message 32 [0 ffffffff 14 800] ------- [20:255 -1:255 32 0] 
r 0.047072061 _73_ RTR  --- 2 message 32 [0 ffffffff 14 800] ------- [20:255 -1:255 32 0] 
r 0.047072066 _79_ RTR  --- 2 message 32 [0 ffffffff 14 800] ------- [20:255 -1:255 32 0] 
r 0.047072080 _5_ RTR  --- 2 message 32 [0 ffffffff 14 800] ------- [20:255 -1:255 32 0] 
r 0.047072120 _2_ RTR  --- 2 message 32 [0 ffffffff 14 800] ------- [20:255 -1:255 32 0] 
r 0.047072127 _53_ RTR  --- 2 message 32 [0 ffffffff 14 800] ------- [20:255 -1:255 32 0] 
r 0.047072156 _37_ RTR  --- 2 message 32 [0 ffffffff 14 800] ------- [20:255 -1:255 32 0] 
r 0.047072184 _25_ RTR  --- 2 message 32 [0 ffffffff 14 800] ------- [20:255 -1:255 32 0] 
r 0.047072222 _44_ RTR  --- 2 message 32 [0 ffffffff 14 800] ------- [20:255 -1:255 32 0] 
r 0.047072226 _43_ RTR  --- 2 message 32 [0 ffffffff 14 800] ------- [20:255 -1:255 32 0] 
r 0.047072237 _48_ RTR  --- 2 message 32 [0 ffffffff 14 800] ------- [20:255 -1:255 32 0] 
r 0.047072246 _75_ RTR  --- 2 message 32 [0 ffffffff 14 800] ------- [20:255 -1:255 32 0] 
r 0.047072258 _3_ RTR  --- 2 message 32 [0 ffffffff 14 800] ------- [20:255 -1:255 32 0] 
r 0.047072269 _46_ RTR  --- 2 message 32 [0 ffffffff 14 800] ------- [20:255 -1:255 32 0] 
r 0.047072277 _74_ RTR  --- 2 message 32 [0 ffffffff 14 800] ------- [20:255 -1:255 32 0] 
r 0.047072291 _14_ RTR  --- 2 message 32 [0 ffffffff 14 800] ------- [20:255 -1:255 32 0] 
r 0.047072323 _69_ RTR  --- 2 message 32 [0 ffffffff 14 800] ------- [20:255 -1:255 32 0] 
r 0.047072325 _63_ RTR  --- 2 message 32 [0 ffffffff 14 800] ------- [20:255 -1:255 32 0] 
r 0.047072331 _58_ RTR  --- 2 message 32 [0 ffffffff 14 800] ------- [20:255 -1:255 32 0] 
r 0.047072345 _19_ RTR  --- 2 message 32 [0 ffffffff 14 800] ------- [20:255 -1:255 32 0] 
r 0.047072346 _11_ RTR  --- 2 message 32 [0 ffffffff 14 800] ------- [20:255 -1:255 32 0] 
r 0.047072349 _41_ RTR  --- 2 message 32 [0 ffffffff 14 800] ------- [20:255 -1:255 32 0] 
r 0.047072357 _72_ RTR  --- 2 message 32 [0 ffffffff 14 800] ------- [20:255 -1:255 32 0] 
s 0.075992829 _41_ RTR  --- 3 message 32 [0 0 0 0] ------- [41:255 -1:255 32 0] 
r 0.078762979 _55_ RTR  --- 3 message 32 [0 ffffffff 29 800] ------- [41:255 -1:255 32 0] 
r 0.078763039 _8_ RTR  --- 3 message 32 [0 ffffffff 29 800] ------- [41:255 -1:255 32 0] 
r 0.078763051 _35_ RTR  --- 3 message 32 [0 ffffffff 29 800] ------- [41:255 -1:255 32 0] 
r 0.078763059 _12_ RTR  --- 3 message 32 [0 ffffffff 29 800] ------- [41:255 -1:255 32 0] 
r 0.078763072 _2_ RTR  --- 3 message 32 [0 ffffffff 29 800] ------- [41:255 -1:255 32 0] 
r 0.078763082 _37_ RTR  --- 3 message 32 [0 ffffffff 29 800] ------- [41:255 -1:255 32 0] 
r 0.078763092 _72_ RTR  --- 3 message 32 [0 ffffffff 29 800] ------- [41:255 -1:255 32 0] 
r 0.078763094 _74_ RTR  --- 3 message 32 [0 ffffffff 29 800] ------- [41:255 -1:255 32 0] 
r 0.078763097 _48_ RTR  --- 3 message 32 [0 ffffffff 29 800] ------- [41:255 -1:255 32 0] 
r 0.078763139 _58_ RTR  --- 3 message 32 [0 ffffffff 29 800] ------- [41:255 -1:255 32 0] 
r 0.078763156 _29_ RTR  --- 3 message 32 [0 ffffffff 29 800] ------- [41:255 -1:255 32 0] 
r 0.078763166 _76_ RTR  --- 3 message 32 [0 ffffffff 29 800] ------- [41:255 -1:255 32 0] 
r 0.078763185 _70_ RTR  --- 3 message 32 [0 ffffffff 29 800] ------- [41:255 -1:255 32 0] 
r 0.078763198 _5_ RTR  --- 3 message 32 [0 ffffffff 29 800] ------- [41:255 -1:255 32 0] 
r 0.078763199 _54_ RTR  --- 3 message 32 [0 ffffffff 29 800] ------- [41:255 -1:255 32 0] 
r 0.078763235 _7_ RTR  --- 3 message 32 [0 ffffffff 29 800] ------- [41:255 -1:255 32 0] 
r 0.078763248 _11_ RTR  --- 3 message 32 [0 ffffffff 29 800] ------- [41:255 -1:255 32 0] 
r 0.078763255 _68_ RTR  --- 3 message 32 [0 ffffffff 29 800] ------- [41:255 -1:255 32 0] 
r 0.078763299 _49_ RTR  --- 3 message 32 [0 ffffffff 29 800] ------- [41:255 -1:255 32 0] 
r 0.078763299 _75_ RTR  --- 3 message 32 [0 ffffffff 29 800] ------- [41:255 -1:255 32 0] 
r 0.078763329 _73_ RTR  --- 3 message 32 [0 ffffffff 29 800] ------- [41:255 -1:255 32 0] 
r 0.078763364 _13_ RTR  --- 3 message 32 [0 ffffffff 29 800] ------- [41:255 -1:255 32 0] 
r 0.078763386 _9_ RTR  --- 3 message 32 [0 ffffffff 29 800] ------- [41:255 -1:255 32 0] 
r 0.078763420 _56_ RTR  --- 3 message 32 [0 ffffffff 29 800] ------- [41:255 -1:255 32 0] 
r 0.078763454 _1_ RTR  --- 3 message 32 [0 ffffffff 29 800] ------- [41:255 -1:255 32 0] 
r 0.078763473 _53_ RTR  --- 3 message 32 [0 ffffffff 29 800] ------- [41:255 -1:255 32 0] 
r 0.078763480 _27_ RTR  --- 3 message 32 [0 ffffffff 29 800] ------- [41:255 -1:255 32 0] 
r 0.078763496 _31_ RTR  --- 3 message 32 [0 ffffffff 29 800] ------- [41:255 -1:255 32 0] 
r 0.078763500 _34_ RTR  --- 3 message 32 [0 ffffffff 29 800] ------- [41:255 -1:255 32 0] 
r 0.078763508 _19_ RTR  --- 3 message 32 [0 ffffffff 29 800] ------- [41:255 -1:255 32 0] 
r 0.078763523 _38_ RTR  --- 3 message 32 [0 ffffffff 29 800] ------- [41:255 -1:255 32 0] 
r 0.078763523 _47_ RTR  --- 3 message 32 [0 ffffffff 29 800] ------- [41:255 -1:255 32 0] 
r 0.078763524 _57_ RTR  --- 3 message 32 [0 ffffffff 29 800] ------- [41:255 -1:255 32 0] 
r 0.078763536 _43_ RTR  --- 3 message 32 [0 ffffffff 29 800] ------- [41:255 -1:255 32 0] 
r 0.078763574 _21_ RTR  --- 3 message 32 [0 ffffffff 29 800] ------- [41:255 -1:255 32 0] 
r 0.078763586 _65_ RTR  --- 3 message 32 [0 ffffffff 29 800] ------- [41:255 -1:255 32 0] 
r 0.078763597 _39_ RTR  --- 3 message 32 [0 ffffffff 29 800] ------- [41:255 -1:255 32 0] 
r 0.078763630 _60_ RTR  --- 3 message 32 [0 ffffffff 29 800] ------- [41:255 -1:255 32 0] 
r 0.078763640 _51_ RTR  --- 3 message 32 [0 ffffffff 29 800] ------- [41:255 -1:255 32 0] 
r 0.078763648 _20_ RTR  --- 3 message 32 [0 ffffffff 29 800] ------- [41:255 -1:255 32 0] 
s 0.084524450 _32_ RTR  --- 4 message 32 [0 0 0 0] ------- [32:255 -1:255 32 0] 
r 0.087934465 _6_ RTR  --- 4 message 32 [0 ffffffff 20 800] ------- [32:255 -1:255 32 0] 
r 0.087934518 _78_ RTR  --- 4 message 32 [0 ffffffff 20 800] ------- [32:255 -1:255 32 0] 
r 0.087934571 _64_ RTR  --- 4 message 32 [0 ffffffff 20 800] ------- [32:255 -1:255 32 0] 
r 0.087934591 _26_ RTR  --- 4 message 32 [0 ffffffff 20 800] ------- [32:255 -1:255 32 0] 
r 0.087934673 _23_ RTR  --- 4 message 32 [0 ffffffff 20 800] ------- [32:255 -1:255 32 0] 
r 0.087934780 _50_ RTR  --- 4 message 32 [0 ffffffff 20 800] ------- [32:255 -1:255 32 0] 
r 0.087934781 _14_ RTR  --- 4 message 32 [0 ffffffff 20 800] ------- [32:255 -1:255 32 0] 
r 0.087934854 _71_ RTR  --- 4 message 32 [0 ffffffff 20 800] ------- [32:255 -1:255 32 0] 
r 0.087934890 _46_ RTR  --- 4 message 32 [0 ffffffff 20 800] ------- [32:255 -1:255 32 0] 
r 0.087934902 _3_ RTR  --- 4 message 32 [0 ffffffff 20 800] ------- [32:255 -1:255 32 0] 
r 0.087934920 _0_ RTR  --- 4 message 32 [0 ffffffff 20 800] ------- [32:255 -1:255 32 0] 
r 0.087934926 _42_ RTR  --- 4 message 32 [0 ffffffff 20 800] ------- [32:255 -1:255 32 0] 
r 0.087934943 _69_ RTR  --- 4 message 32 [0 ffffffff 20 800] ------- [32:255 -1:255 32 0] 
r 0.087934984 _79_ RTR  --- 4 message 32 [0 ffffffff 20 800] ------- [32:255 -1:255 32 0] 
r 0.087935016 _63_ RTR  --- 4 message 32 [0 ffffffff 20 800] ------- [32:255 -1:255 32 0] 
r 0.087935022 _44_ RTR  --- 4 message 32 [0 ffffffff 20 800] ------- [32:255 -1:255 32 0] 
r 0.087935097 _66_ RTR  --- 4 message 32 [0 ffffffff 20 800] ------- [32:255 -1:255 32 0] 
r 0.087935103 _62_ RTR  --- 4 message 32 [0 ffffffff 20 800] ------- [32:255 -1:255 32 0] 
r 0.087935123 _40_ RTR  --- 4 message 32 [0 ffffffff 20 800] ------- [32:255 -1:255 32 0] 
r 0.087935128 _17_ RTR  --- 4 message 32 [0 ffffffff 20 800] ------- [32:255 -1:255 32 0] 
r 0.087935147 _25_ RTR  --- 4 message 32 [0 ffffffff 20 800] ------- [32:255 -1:255 32 0] 
r 0.087935167 _43_ RTR  --- 4 message 32 [0 ffffffff 20 800] ------- [32:255 -1:255 32 0] 
r 0.087935169 _22_ RTR  --- 4 message 32 [0 ffffffff 20 800] ------- [32:255 -1:255 32 0] 
r 0.087935186 _24_ RTR  --- 4 message 32 [0 ffffffff 20 800] ------- [32:255 -1:255 32 0] 
r 0.087935191 _45_ RTR  --- 4 message 32 [0 ffffffff 20 800] ------- [32:255 -1:255 32 0] 
r 0.087935212 _15_ RTR  --- 4 message 32 [0 ffffffff 20 800] ------- [32:255 -1:255 32 0] 
r 0.087935215 _10_ RTR  --- 4 message 32 [0 ffffffff 20 800] ------- [32:255 -1:255 32 0] 
r 0.087935223 _53_ RTR  --- 4 message 32 [0 ffffffff 20 800] ------- [32:255 -1:255 32 0] 
r 0.087935236 _52_ RTR  --- 4 message 32 [0 ffffffff 20 800] ------- [32:255 -1:255 32 0] 
r 0.087935269 _4_ RTR  --- 4 message 32 [0 ffffffff 20 800] ------- [32:255 -1:255 32 0] 
s 0.116718784 _47_ RTR  --- 5 message 32 [0 0 0 0] ------- [47:255 -1:255 32 0] 
r 0.121408825 _57_ RTR  --- 5 message 32 [0 ffffffff 2f 800] ------- [47:255 -1:255 32 0] 
r 0.121408838 _21_ RTR  --- 5 message 32 [0 ffffffff 2f 800] ------- [47:255 -1:255 32 0] 
r 0.121408864 _65_ RTR  --- 5 message 32 [0 ffffffff 2f 800] ------- [47:255 -1:255 32 0] 
r 0.121408951 _20_ RTR  --- 5 message 32 [0 ffffffff 2f 800] ------- [47:255 -1:255 32 0] 
r 0.121409009 _56_ RTR  --- 5 message 32 [0 ffffffff 2f 800] ------- [47:255 -1:255 32 0] 
r 0.121409059 _60_ RTR  --- 5 message 32 [0 ffffffff 2f 800] ------- [47:255 -1:255 32 0] 
r 0.121409148 _27_ RTR  --- 5 message 32 [0 ffffffff 2f 800] ------- [47:255 -1:255 32 0] 
r 0.121409149 _73_ RTR  --- 5 message 32 [0 ffffffff 2f 800] ------- [47:255 -1:255 32 0] 
r 0.121409172 _70_ RTR  --- 5 message 32 [0 ffffffff 2f 800] ------- [47:255 -1:255 32 0] 
r 0.121409177 _5_ RTR  --- 5 message 32 [0 ffffffff 2f 800] ------- [47:255 -1:255 32 0] 
r 0.121409248 _61_ RTR  --- 5 message 32 [0 ffffffff 2f 800] ------- [47:255 -1:255 32 0] 
r 0.121409249 _68_ RTR  --- 5 message 32 [0 ffffffff 2f 800] ------- [47:255 -1:255 32 0] 
r 0.121409252 _18_ RTR  --- 5 message 32 [0 ffffffff 2f 800] ------- [47:255 -1:255 32 0] 
r 0.121409263 _37_ RTR  --- 5 message 32 [0 ffffffff 2f 800] ------- [47:255 -1:255 32 0] 
r 0.121409268 _2_ RTR  --- 5 message 32 [0 ffffffff 2f 800] ------- [47:255 -1:255 32 0] 
r 0.121409275 _24_ RTR  --- 5 message 32 [0 ffffffff 2f 800] ------- [47:255 -1:255 32 0] 
r 0.121409290 _15_ RTR  --- 5 message 32 [0 ffffffff 2f 800] ------- [47:255 -1:255 32 0] 
r 0.121409304 _4_ RTR  --- 5 message 32 [0 ffffffff 2f 800] ------- [47:255 -1:255 32 0] 
r 0.121409371 _40_ RTR  --- 5 message 32 [0 ffffffff 2f 800] ------- [47:255 -1:255 32 0] 
r 0.121409377 _77_ RTR  --- 5 message 32 [0 ffffffff 2f 800] ------- [47:255 -1:255 32 0] 
r 0.121409400 _53_ RTR  --- 5 message 32 [0 ffffffff 2f 800] ------- [47:255 -1:255 32 0] 
r 0.121409413 _48_ RTR  --- 5 message 32 [0 ffffffff 2f 800] ------- [47:255 -1:255 32 0] 
r 0.121409426 _58_ RTR  --- 5 message 32 [0 ffffffff 2f 800] ------- [47:255 -1:255 32 0] 
r 0.121409436 _19_ RTR  --- 5 message 32 [0 ffffffff 2f 800] ------- [47:255 -1:255 32 0] 
r 0.121409439 _28_ RTR  --- 5 message 32 [0 ffffffff 2f 800] ------- [47:255 -1:255 32 0] 
r 0.121409453 _74_ RTR  --- 5 message 32 [0 ffffffff 2f 800] ------- [47:255 -1:255 32 0] 
r 0.121409455 _72_ RTR  --- 5 message 32 [0 ffffffff 2f 800] ------- [47:255 -1:255 32 0] 
r 0.121409463 _79_ RTR  --- 5 message 32 [0 ffffffff 2f 800] ------- [47:255 -1:255 32 0] 
r 0.121409468 _31_ RTR  --- 5 message 32 [0 ffffffff 2f 800] ------- [47:255 -1:255 32 0] 
r 0.121409468 _75_ RTR  --- 5 message 32 [0 ffffffff 2f 800] ------- [47:255 -1:255 32 0] 
r 0.121409478 _41_ RTR  --- 5 message 32 [0 ffffffff 2f 800] ------- [47:255 -1:255 32 0] 
r 0.121409506 _43_ RTR  --- 5 message 32 [0 ffffffff 2f 800] ------- [47:255 -1:255 32 0] 
r 0.121409551 _11_ RTR  --- 5 message 32 [0 ffffffff 2f 800] ------- [47:255 -1:255 32 0] 
r 0.121409554 _55_ RTR  --- 5 message 32 [0 ffffffff 2f 800] ------- [47:255 -1:255 32 0] 
r 0.121409576 _12_ RTR  --- 5 message 32 [0 ffffffff 2f 800] ------- [47:255 -1:255 32 0] 
r 0.121409578 _54_ RTR  --- 5 message 32 [0 ffffffff 2f 800] ------- [47:255 -1:255 32 0] 
r 0.121409595 _3_ RTR  --- 5 message 32 [0 ffffffff 2f 800] ------- [47:255 -1:255 32 0] 
r 0.121409605 _25_ RTR  --- 5 message 32 [0 ffffffff 2f 800] ------- [47:255 -1:255 32 0] 
s 0.134582900 _64_ RTR  --- 6 message 32 [0 0 0 0] ------- [64:255 -1:255 32 0] 
r 0.138633010 _6_ RTR  --- 6 message 32 [0 ffffffff 40 800] ------- [64:255 -1:255 32 0] 
r 0.138633021 _32_ RTR  --- 6 message 32 [0 ffffffff 40 800] ------- [64:255 -1:255 32 0] 
r 0.138633023 _78_ RTR  --- 6 message 32 [0 ffffffff 40 800] ------- [64:255 -1:255 32 0] 
r 0.138633043 _26_ RTR  --- 6 message 32 [0 ffffffff 40 800] ------- [64:255 -1:255 32 0] 
r 0.138633158 _23_ RTR  --- 6 message 32 [0 ffffffff 40 800] ------- [64:255 -1:255 32 0] 
r 0.138633160 _14_ RTR  --- 6 message 32 [0 ffffffff 40 800] ------- [64:255 -1:255 32 0] 
r 0.138633177 _50_ RTR  --- 6 message 32 [0 ffffffff 40 800] ------- [64:255 -1:255 32 0] 
r 0.138633185 _71_ RTR  --- 6 message 32 [0 ffffffff 40 800] ------- [64:255 -1:255 32 0] 
r 0.138633252 _0_ RTR  --- 6 message 32 [0 ffffffff 40 800] ------- [64:255 -1:255 32 0] 
r 0.138633257 _3_ RTR  --- 6 message 32 [0 ffffffff 40 800] ------- [64:255 -1:255 32 0] 
r 0.138633264 _42_ RTR  --- 6 message 32 [0 ffffffff 40 800] ------- [64:255 -1:255 32 0] 
r 0.138633380 _46_ RTR  --- 6 message 32 [0 ffffffff 40 800] ------- [64:255 -1:255 32 0] 
r 0.138633420 _79_ RTR  --- 6 message 32 [0 ffffffff 40 800] ------- [64:255 -1:255 32 0] 
r 0.138633430 _66_ RTR  --- 6 message 32 [0 ffffffff 40 800] ------- [64:255 -1:255 32 0] 
r 0.138633452 _69_ RTR  --- 6 message 32 [0 ffffffff 40 800] ------- [64:255 -1:255 32 0] 
r 0.138633457 _17_ RTR  --- 6 message 32 [0 ffffffff 40 800] ------- [64:255 -1:255 32 0] 
r 0.138633476 _62_ RTR  --- 6 message 32 [0 ffffffff 40 800] ------- [64:255 -1:255 32 0] 
r 0.138633511 _43_ RTR  --- 6 message 32 [0 ffffffff 40 800] ------- [64:255 -1:255 32 0] 
r 0.138633513 _44_ RTR  --- 6 message 32 [0 ffffffff 40 800] ------- [64:255 -1:255 32 0] 
r 0.138633527 _63_ RTR  --- 6 message 32 [0 ffffffff 40 800] ------- [64:255 -1:255 32 0] 
r 0.138633545 _22_ RTR  --- 6 message 32 [0 ffffffff 40 800] ------- [64:255 -1:255 32 0] 
r 0.138633564 _40_ RTR  --- 6 message 32 [0 ffffffff 40 800] ------- [64:255 -1:255 32 0] 
r 0.138633576 _53_ RTR  --- 6 message 32 [0 ffffffff 40 800] ------- [64:255 -1:255 32 0] 
r 0.138633587 _45_ RTR  --- 6 message 32 [0 ffffffff 40 800] ------- [64:255 -1:255 32 0] 
r 0.138633600 _52_ RTR  --- 6 message 32 [0 ffffffff 40 800] ------- [64:255 -1:255 32 0] 
r 0.138633604 _10_ RTR  --- 6 message 32 [0 ffffffff 40 800] ------- [64:255 -1:255 32 0] 
r 0.138633613 _24_ RTR  --- 6 message 32 [0 ffffffff 40 800] ------- [64:255 -1:255 32 0] 
r 0.138633637 _25_ RTR  --- 6 message 32 [0 ffffffff 40 800] ------- [64:255 -1:255 32 0] 
r 0.138633648 _15_ RTR  --- 6 message 32 [0 ffffffff 40 800] ------- [64:255 -1:255 32 0] 
r 0.138633700 _27_ RTR  --- 6 message 32 [0 ffffffff 40 800] ------- [64:255 -1:255 32 0] 
r 0.138633714 _4_ RTR  --- 6 message 32 [0 ffffffff 40 800] ------- [64:255 -1:255 32 0] 
r 0.138633724 _18_ RTR  --- 6 message 32 [0 ffffffff 40 800] ------- [64:255 -1:255 32 0] 
s 0.144839156 _79_ RTR  --- 7 message 32 [0 0 0 0] ------- [79:255 -1:255 32 0] 
r 0.148249300 _40_ RTR  --- 7 message 32 [0 ffffffff 4f 800] ------- [79:255 -1:255 32 0] 
r 0.148249359 _24_ RTR  --- 7 message 32 [0 ffffffff 4f 800] ------- [79:255 -1:255 32 0] 
r 0.148249385 _15_ RTR  --- 7 message 32 [0 ffffffff 4f 800] ------- [79:255 -1:255 32 0] 
r 0.148249389 _46_ RTR  --- 7 message 32 [0 ffffffff 4f 800] ------- [79:255 -1:255 32 0] 
r 0.148249422 _44_ RTR  --- 7 message 32 [0 ffffffff 4f 800] ------- [79:255 -1:255 32 0] 
r 0.148249451 _4_ RTR  --- 7 message 32 [0 ffffffff 4f 800] ------- [79:255 -1:255 32 0] 
r 0.148249460 _18_ RTR  --- 7 message 32 [0 ffffffff 4f 800] ------- [79:255 -1:255 32 0] 
r 0.148249463 _14_ RTR  --- 7 message 32 [0 ffffffff 4f 800] ------- [79:255 -1:255 32 0] 
r 0.148249477 _69_ RTR  --- 7 message 32 [0 ffffffff 4f 800] ------- [79:255 -1:255 32 0] 
r 0.148249482 _23_ RTR  --- 7 message 32 [0 ffffffff 4f 800] ------- [79:255 -1:255 32 0] 
r 0.148249491 _25_ RTR  --- 7 message 32 [0 ffffffff 4f 800] ------- [79:255 -1:255 32 0] 
r 0.148249506 _61_ RTR  --- 7 message 32 [0 ffffffff 4f 800] ------- [79:255 -1:255 32 0] 
r 0.148249519 _63_ RTR  --- 7 message 32 [0 ffffffff 4f 800] ------- [79:255 -1:255 32 0] 
r 0.148249529 _3_ RTR  --- 7 message 32 [0 ffffffff 4f 800] ------- [79:255 -1:255 32 0] 
r 0.148249551 _28_ RTR  --- 7 message 32 [0 ffffffff 4f 800] ------- [79:255 -1:255 32 0] 
r 0.148249553 _26_ RTR  --- 7 message 32 [0 ffffffff 4f 800] ------- [79:255 -1:255 32 0] 
r 0.148249554 _77_ RTR  --- 7 message 32 [0 ffffffff 4f 800] ------- [79:255 -1:255 32 0] 
r 0.148249561 _60_ RTR  --- 7 message 32 [0 ffffffff 4f 800] ------- [79:255 -1:255 32 0] 
r 0.148249611 _27_ RTR  --- 7 message 32 [0 ffffffff 4f 800] ------- [79:255 -1:255 32 0] 
r 0.148249622 _78_ RTR  --- 7 message 32 [0 ffffffff 4f 800] ------- [79:255 -1:255 32 0] 
r 0.148249677 _64_ RTR  --- 7 message 32 [0 ffffffff 4f 800] ------- [79:255 -1:255 32 0] 
r 0.148249686 _53_ RTR  --- 7 message 32 [0 ffffffff 4f 800] ------- [79:255 -1:255 32 0] 
r 0.148249691 _32_ RTR  --- 7 message 32 [0 ffffffff 4f 800] ------- [79:255 -1:255 32 0] 
r 0.148249692 _20_ RTR  --- 7 message 32 [0 ffffffff 4f 800] ------- [79:255 -1:255 32 0] 
r 0.148249697 _6_ RTR  --- 7 message 32 [0 ffffffff 4f 800] ------- [79:255 -1:255 32 0] 
r 0.148249712 _43_ RTR  --- 7 message 32 [0 ffffffff 4f 800] ------- [79:255 -1:255 32 0] 
r 0.148249720 _0_ RTR  --- 7 message 32 [0 ffffffff 4f 800] ------- [79:255 -1:255 32 0] 
r 0.148249803 _71_ RTR  --- 7 message 32 [0 ffffffff 4f 800] ------- [79:255 -1:255 32 0] 
r 0.148249805 _21_ RTR  --- 7 message 32 [0 ffffffff 4f 800] ------- [79:255 -1:255 32 0] 
r 0.148249832 _68_ RTR  --- 7 message 32 [0 ffffffff 4f 800] ------- [79:255 -1:255 32 0] 
r 0.148249834 _47_ RTR  --- 7 message 32 [0 ffffffff 4f 800] ------- [79:255 -1:255 32 0] 
r 0.148249869 _65_ RTR  --- 7 message 32 [0 ffffffff 4f 800] ------- [79:255 -1:255 32 0] 
r 0.148249873 _57_ RTR  --- 7 message 32 [0 ffffffff 4f 800] ------- [79:255 -1:255 32 0] 
r 0.148249904 _75_ RTR  --- 7 message 32 [0 ffffffff 4f 800] ------- [79:255 -1:255 32 0] 
r 0.148249906 _42_ RTR  --- 7 message 32 [0 ffffffff 4f 800] ------- [79:255 -1:255 32 0] 
r 0.148249916 _70_ RTR  --- 7 message 32 [0 ffffffff 4f 800] ------- [79:255 -1:255 32 0] 
r 0.148249925 _17_ RTR  --- 7 message 32 [0 ffffffff 4f 800] ------- [79:255 -1:255 32 0] 
r 0.148249947 _50_ RTR  --- 7 message 32 [0 ffffffff 4f 800] ------- [79:255 -1:255 32 0] 
s 0.154721879 _14_ RTR  --- 8 message 32 [0 0 0 0] ------- [14:255 -1:255 32 0] 
r 0.158132023 _3_ RTR  --- 8 message 32 [0 ffffffff e 800] ------- [14:255 -1:255 32 0] 
r 0.158132083 _26_ RTR  --- 8 message 32 [0 ffffffff e 800] ------- [14:255 -1:255 32 0] 
r 0.158132122 _23_ RTR  --- 8 message 32 [0 ffffffff e 800] ------- [14:255 -1:255 32 0] 
r 0.158132139 _64_ RTR  --- 8 message 32 [0 ffffffff e 800] ------- [14:255 -1:255 32 0] 
r 0.158132153 _78_ RTR  --- 8 message 32 [0 ffffffff e 800] ------- [14:255 -1:255 32 0] 
r 0.158132161 _0_ RTR  --- 8 message 32 [0 ffffffff e 800] ------- [14:255 -1:255 32 0] 
r 0.158132186 _79_ RTR  --- 8 message 32 [0 ffffffff e 800] ------- [14:255 -1:255 32 0] 
r 0.158132209 _6_ RTR  --- 8 message 32 [0 ffffffff e 800] ------- [14:255 -1:255 32 0] 
r 0.158132210 _32_ RTR  --- 8 message 32 [0 ffffffff e 800] ------- [14:255 -1:255 32 0] 
r 0.158132220 _71_ RTR  --- 8 message 32 [0 ffffffff e 800] ------- [14:255 -1:255 32 0] 
r 0.158132260 _46_ RTR  --- 8 message 32 [0 ffffffff e 800] ------- [14:255 -1:255 32 0] 
r 0.158132295 _43_ RTR  --- 8 message 32 [0 ffffffff e 800] ------- [14:255 -1:255 32 0] 
r 0.158132323 _42_ RTR  --- 8 message 32 [0 ffffffff e 800] ------- [14:255 -1:255 32 0] 
r 0.158132326 _40_ RTR  --- 8 message 32 [0 ffffffff e 800] ------- [14:255 -1:255 32 0] 
r 0.158132332 _53_ RTR  --- 8 message 32 [0 ffffffff e 800] ------- [14:255 -1:255 32 0] 
r 0.158132354 _24_ RTR  --- 8 message 32 [0 ffffffff e 800] ------- [14:255 -1:255 32 0] 
r 0.158132358 _69_ RTR  --- 8 message 32 [0 ffffffff e 800] ------- [14:255 -1:255 32 0] 
r 0.158132372 _44_ RTR  --- 8 message 32 [0 ffffffff e 800] ------- [14:255 -1:255 32 0] 
r 0.158132381 _50_ RTR  --- 8 message 32 [0 ffffffff e 800] ------- [14:255 -1:255 32 0] 
r 0.158132386 _17_ RTR  --- 8 message 32 [0 ffffffff e 800] ------- [14:255 -1:255 32 0] 
r 0.158132399 _15_ RTR  --- 8 message 32 [0 ffffffff e 800] ------- [14:255 -1:255 32 0] 
r 0.158132421 _27_ RTR  --- 8 message 32 [0 ffffffff e 800] ------- [14:255 -1:255 32 0] 
r 0.158132426 _66_ RTR  --- 8 message 32 [0 ffffffff e 800] ------- [14:255 -1:255 32 0] 
r 0.158132429 _63_ RTR  --- 8 message 32 [0 ffffffff e 800] ------- [14:255 -1:255 32 0] 
r 0.158132475 _18_ RTR  --- 8 message 32 [0 ffffffff e 800] ------- [14:255 -1:255 32 0] 
r 0.158132475 _4_ RTR  --- 8 message 32 [0 ffffffff e 800] ------- [14:255 -1:255 32 0] 
r 0.158132479 _25_ RTR  --- 8 message 32 [0 ffffffff e 800] ------- [14:255 -1:255 32 0] 
r 0.158132484 _60_ RTR  --- 8 message 32 [0 ffffffff e 800] ------- [14:255 -1:255 32 0] 
r 0.158132524 _61_ RTR  --- 8 message 32 [0 ffffffff e 800] ------- [14:255 -1:255 32 0] 
r 0.158132538 _75_ RTR  --- 8 message 32 [0 ffffffff e 800] ------- [14:255 -1:255 32 0] 
r 0.158132562 _68_ RTR  --- 8 message 32 [0 ffffffff e 800] ------- [14:255 -1:255 32 0] 
r 0.158132579 _28_ RTR  --- 8 message 32 [0 ffffffff e 800] ------- [14:255 -1:255 32 0] 
r 0.158132583 _77_ RTR  --- 8 message 32 [0 ffffffff e 800] ------- [14:255 -1:255 32 0] 
r 0.158132618 _62_ RTR  --- 8 message 32 [0 ffffffff e 800] ------- [14:255 -1:255 32 0] 
r 0.158132639 _20_ RTR  --- 8 message 32 [0 ffffffff e 800] ------- [14:255 -1:255 32 0] 
r 0.158132645 _11_ RTR  --- 8 message 32 [0 ffffffff e 800] ------- [14:255 -1:255 32 0] 
r 0.158132687 _70_ RTR  --- 8 message 32 [0 ffffffff e 800] ------- [14:255 -1:255 32 0] 