s 0.076382433 _47_ RTR  --- 0 message 32 [0 0 0 0] ------- [47:255 -1:255 32 0] 
s 0.077659965 _1_ RTR  --- 1 message 32 [0 0 0 0] ------- [1:255 -1:255 32 0] 
r 0.080750079 _90_ RTR  --- 1 message 32 [0 ffffffff 1 800] ------- [1:255 -1:255 32 0] 
r 0.080750103 _87_ RTR  --- 1 message 32 [0 ffffffff 1 800] ------- [1:255 -1:255 32 0] 
r 0.080750121 _49_ RTR  --- 1 message 32 [0 ffffffff 1 800] ------- [1:255 -1:255 32 0] 
r 0.080750127 _39_ RTR  --- 1 message 32 [0 ffffffff 1 800] ------- [1:255 -1:255 32 0] 
r 0.080750139 _38_ RTR  --- 1 message 32 [0 ffffffff 1 800] ------- [1:255 -1:255 32 0] 
r 0.080750150 _51_ RTR  --- 1 message 32 [0 ffffffff 1 800] ------- [1:255 -1:255 32 0] 
r 0.080750165 _97_ RTR  --- 1 message 32 [0 ffffffff 1 800] ------- [1:255 -1:255 32 0] 
r 0.080750227 _7_ RTR  --- 1 message 32 [0 ffffffff 1 800] ------- [1:255 -1:255 32 0] 
r 0.080750252 _34_ RTR  --- 1 message 32 [0 ffffffff 1 800] ------- [1:255 -1:255 32 0] 
r 0.080750253 _9_ RTR  --- 1 message 32 [0 ffffffff 1 800] ------- [1:255 -1:255 32 0] 
r 0.080750260 _86_ RTR  --- 1 message 32 [0 ffffffff 1 800] ------- [1:255 -1:255 32 0] 
r 0.080750268 _29_ RTR  --- 1 message 32 [0 ffffffff 1 800] ------- [1:255 -1:255 32 0] 
r 0.080750300 _33_ RTR  --- 1 message 32 [0 ffffffff 1 800] ------- [1:255 -1:255 32 0] 
r 0.080750303 _13_ RTR  --- 1 message 32 [0 ffffffff 1 800] ------- [1:255 -1:255 32 0] 
r 0.080750315 _76_ RTR  --- 1 message 32 [0 ffffffff 1 800] ------- [1:255 -1:255 32 0] 
r 0.080750363 _16_ RTR  --- 1 message 32 [0 ffffffff 1 800] ------- [1:255 -1:255 32 0] 
r 0.080750381 _8_ RTR  --- 1 message 32 [0 ffffffff 1 800] ------- [1:255 -1:255 32 0] 
r 0.080750396 _35_ RTR  --- 1 message 32 [0 ffffffff 1 800] ------- [1:255 -1:255 32 0] 
r 0.080750396 _59_ RTR  --- 1 message 32 [0 ffffffff 1 800] ------- [1:255 -1:255 32 0] 
r 0.080750465 _12_ RTR  --- 1 message 32 [0 ffffffff 1 800] ------- [1:255 -1:255 32 0] 
r 0.080750530 _54_ RTR  --- 1 message 32 [0 ffffffff 1 800] ------- [1:255 -1:255 32 0] 
r 0.080750590 _41_ RTR  --- 1 message 32 [0 ffffffff 1 800] ------- [1:255 -1:255 32 0] 
r 0.080750597 _11_ RTR  --- 1 message 32 [0 ffffffff 1 800] ------- [1:255 -1:255 32 0] 
r 0.080750605 _74_ RTR  --- 1 message 32 [0 ffffffff 1 800] ------- [1:255 -1:255 32 0] 
r 0.080750609 _55_ RTR  --- 1 message 32 [0 ffffffff 1 800] ------- [1:255 -1:255 32 0] 
r 0.080750611 _93_ RTR  --- 1 message 32 [0 ffffffff 1 800] ------- [1:255 -1:255 32 0] 
r 0.080750635 _67_ RTR  --- 1 message 32 [0 ffffffff 1 800] ------- [1:255 -1:255 32 0] 
r 0.080750644 _48_ RTR  --- 1 message 32 [0 ffffffff 1 800] ------- [1:255 -1:255 32 0] 
r 0.080750646 _88_ RTR  --- 1 message 32 [0 ffffffff 1 800] ------- [1:255 -1:255 32 0] 
r 0.080750677 _82_ RTR  --- 1 message 32 [0 ffffffff 1 800] ------- [1:255 -1:255 32 0] 
r 0.080750711 _30_ RTR  --- 1 message 32 [0 ffffffff 1 800] ------- [1:255 -1:255 32 0] 
r 0.080750718 _75_ RTR  --- 1 message 32 [0 ffffffff 1 800] ------- [1:255 -1:255 32 0] 
r 0.080750761 _99_ RTR  --- 1 message 32 [0 ffffffff 1 800] ------- [1:255 -1:255 32 0] 
r 0.080750768 _2_ RTR  --- 1 message 32 [0 ffffffff 1 800] ------- [1:255 -1:255 32 0] 
r 0.080750789 _72_ RTR  --- 1 message 32 [0 ffffffff 1 800] ------- [1:255 -1:255 32 0] 
r 0.085360473 _57_ RTR  --- 0 message 32 [0 ffffffff 2f 800] ------- [47:255 -1:255 32 0] 
r 0.085360487 _21_ RTR  --- 0 message 32 [0 ffffffff 2f 800] ------- [47:255 -1:255 32 0] 
r 0.085360513 _65_ RTR  --- 0 message 32 [0 ffffffff 2f 800] ------- [47:255 -1:255 32 0] 
r 0.085360600 _20_ RTR  --- 0 message 32 [0 ffffffff 2f 800] ------- [47:255 -1:255 32 0] 
r 0.085360650 _83_ RTR  --- 0 message 32 [0 ffffffff 2f 800] ------- [47:255 -1:255 32 0] 
r 0.085360658 _56_ RTR  --- 0 message 32 [0 ffffffff 2f 800] ------- [47:255 -1:255 32 0] 
r 0.085360708 _60_ RTR  --- 0 message 32 [0 ffffffff 2f 800] ------- [47:255 -1:255 32 0] 
r 0.085360797 _27_ RTR  --- 0 message 32 [0 ffffffff 2f 800] ------- [47:255 -1:255 32 0] 
r 0.085360797 _73_ RTR  --- 0 message 32 [0 ffffffff 2f 800] ------- [47:255 -1:255 32 0] 
r 0.085360821 _70_ RTR  --- 0 message 32 [0 ffffffff 2f 800] ------- [47:255 -1:255 32 0] 
r 0.085360825 _5_ RTR  --- 0 message 32 [0 ffffffff 2f 800] ------- [47:255 -1:255 32 0] 
r 0.085360897 _61_ RTR  --- 0 message 32 [0 ffffffff 2f 800] ------- [47:255 -1:255 32 0] 
r 0.085360898 _68_ RTR  --- 0 message 32 [0 ffffffff 2f 800] ------- [47:255 -1:255 32 0] 
r 0.085360900 _18_ RTR  --- 0 message 32 [0 ffffffff 2f 800] ------- [47:255 -1:255 32 0] 
r 0.085360912 _37_ RTR  --- 0 message 32 [0 ffffffff 2f 800] ------- [47:255 -1:255 32 0] 
r 0.085360917 _2_ RTR  --- 0 message 32 [0 ffffffff 2f 800] ------- [47:255 -1:255 32 0] 
r 0.085360923 _24_ RTR  --- 0 message 32 [0 ffffffff 2f 800] ------- [47:255 -1:255 32 0] 
r 0.085360928 _91_ RTR  --- 0 message 32 [0 ffffffff 2f 800] ------- [47:255 -1:255 32 0] 
r 0.085360938 _15_ RTR  --- 0 message 32 [0 ffffffff 2f 800] ------- [47:255 -1:255 32 0] 
r 0.085360947 _94_ RTR  --- 0 message 32 [0 ffffffff 2f 800] ------- [47:255 -1:255 32 0] 
r 0.085360950 _92_ RTR  --- 0 message 32 [0 ffffffff 2f 800] ------- [47:255 -1:255 32 0] 
r 0.085360953 _4_ RTR  --- 0 message 32 [0 ffffffff 2f 800] ------- [47:255 -1:255 32 0] 
r 0.085361020 _40_ RTR  --- 0 message 32 [0 ffffffff 2f 800] ------- [47:255 -1:255 32 0] 
r 0.085361026 _77_ RTR  --- 0 message 32 [0 ffffffff 2f 800] ------- [47:255 -1:255 32 0] 
r 0.085361049 _53_ RTR  --- 0 message 32 [0 ffffffff 2f 800] ------- [47:255 -1:255 32 0] 
r 0.085361059 _81_ RTR  --- 0 message 32 [0 ffffffff 2f 800] ------- [47:255 -1:255 32 0] 
r 0.085361061 _48_ RTR  --- 0 message 32 [0 ffffffff 2f 800] ------- [47:255 -1:255 32 0] 
r 0.085361075 _58_ RTR  --- 0 message 32 [0 ffffffff 2f 800] ------- [47:255 -1:255 32 0] 
r 0.085361085 _19_ RTR  --- 0 message 32 [0 ffffffff 2f 800] ------- [47:255 -1:255 32 0] 
r 0.085361088 _28_ RTR  --- 0 message 32 [0 ffffffff 2f 800] ------- [47:255 -1:255 32 0] 
r 0.085361101 _74_ RTR  --- 0 message 32 [0 ffffffff 2f 800] ------- [47:255 -1:255 32 0] 
r 0.085361104 _72_ RTR  --- 0 message 32 [0 ffffffff 2f 800] ------- [47:255 -1:255 32 0] 
r 0.085361112 _79_ RTR  --- 0 message 32 [0 ffffffff 2f 800] ------- [47:255 -1:255 32 0] 
r 0.085361116 _31_ RTR  --- 0 message 32 [0 ffffffff 2f 800] ------- [47:255 -1:255 32 0] 
r 0.085361117 _75_ RTR  --- 0 message 32 [0 ffffffff 2f 800] ------- [47:255 -1:255 32 0] 
r 0.085361127 _41_ RTR  --- 0 message 32 [0 ffffffff 2f 800] ------- [47:255 -1:255 32 0] 
r 0.085361151 _80_ RTR  --- 0 message 32 [0 ffffffff 2f 800] ------- [47:255 -1:255 32 0] 
r 0.085361155 _43_ RTR  --- 0 message 32 [0 ffffffff 2f 800] ------- [47:255 -1:255 32 0] 
r 0.085361158 _95_ RTR  --- 0 message 32 [0 ffffffff 2f 800] ------- [47:255 -1:255 32 0] 
r 0.085361168 _98_ RTR  --- 0 message 32 [0 ffffffff 2f 800] ------- [47:255 -1:255 32 0] 
r 0.085361199 _11_ RTR  --- 0 message 32 [0 ffffffff 2f 800] ------- [47:255 -1:255 32 0] 
r 0.085361203 _55_ RTR  --- 0 message 32 [0 ffffffff 2f 800] ------- [47:255 -1:255 32 0] 
r 0.085361225 _12_ RTR  --- 0 message 32 [0 ffffffff 2f 800] ------- [47:255 -1:255 32 0] 
r 0.085361227 _54_ RTR  --- 0 message 32 [0 ffffffff 2f 800] ------- [47:255 -1:255 32 0] 
r 0.085361244 _3_ RTR  --- 0 message 32 [0 ffffffff 2f 800] ------- [47:255 -1:255 32 0] 
r 0.085361254 _25_ RTR  --- 0 message 32 [0 ffffffff 2f 800] ------- [47:255 -1:255 32 0] 
s 0.097628715 _72_ RTR  --- 2 message 32 [0 0 0 0] ------- [72:255 -1:255 32 0] 
r 0.101998773 _58_ RTR  --- 2 message 32 [0 ffffffff 48 800] ------- [72:255 -1:255 32 0] 
r 0.101998896 _55_ RTR  --- 2 message 32 [0 ffffffff 48 800] ------- [72:255 -1:255 32 0] 
r 0.101998926 _37_ RTR  --- 2 message 32 [0 ffffffff 48 800] ------- [72:255 -1:255 32 0] 
r 0.101998979 _41_ RTR  --- 2 message 32 [0 ffffffff 48 800] ------- [72:255 -1:255 32 0] 
r 0.101998994 _5_ RTR  --- 2 message 32 [0 ffffffff 48 800] ------- [72:255 -1:255 32 0] 
r 0.101999074 _73_ RTR  --- 2 message 32 [0 ffffffff 48 800] ------- [72:255 -1:255 32 0] 
r 0.101999100 _2_ RTR  --- 2 message 32 [0 ffffffff 48 800] ------- [72:255 -1:255 32 0] 
r 0.101999109 _35_ RTR  --- 2 message 32 [0 ffffffff 48 800] ------- [72:255 -1:255 32 0] 
r 0.101999131 _31_ RTR  --- 2 message 32 [0 ffffffff 48 800] ------- [72:255 -1:255 32 0] 
r 0.101999141 _8_ RTR  --- 2 message 32 [0 ffffffff 48 800] ------- [72:255 -1:255 32 0] 
r 0.101999150 _19_ RTR  --- 2 message 32 [0 ffffffff 48 800] ------- [72:255 -1:255 32 0] 
r 0.101999180 _70_ RTR  --- 2 message 32 [0 ffffffff 48 800] ------- [72:255 -1:255 32 0] 
r 0.101999209 _12_ RTR  --- 2 message 32 [0 ffffffff 48 800] ------- [72:255 -1:255 32 0] 
r 0.101999210 _56_ RTR  --- 2 message 32 [0 ffffffff 48 800] ------- [72:255 -1:255 32 0] 
r 0.101999213 _48_ RTR  --- 2 message 32 [0 ffffffff 48 800] ------- [72:255 -1:255 32 0] 
r 0.101999223 _74_ RTR  --- 2 message 32 [0 ffffffff 48 800] ------- [72:255 -1:255 32 0] 
r 0.101999239 _29_ RTR  --- 2 message 32 [0 ffffffff 48 800] ------- [72:255 -1:255 32 0] 
r 0.101999304 _76_ RTR  --- 2 message 32 [0 ffffffff 48 800] ------- [72:255 -1:255 32 0] 
r 0.101999304 _68_ RTR  --- 2 message 32 [0 ffffffff 48 800] ------- [72:255 -1:255 32 0] 
r 0.101999306 _86_ RTR  --- 2 message 32 [0 ffffffff 48 800] ------- [72:255 -1:255 32 0] 
r 0.101999344 _54_ RTR  --- 2 message 32 [0 ffffffff 48 800] ------- [72:255 -1:255 32 0] 
r 0.101999361 _7_ RTR  --- 2 message 32 [0 ffffffff 48 800] ------- [72:255 -1:255 32 0] 
r 0.101999372 _57_ RTR  --- 2 message 32 [0 ffffffff 48 800] ------- [72:255 -1:255 32 0] 
r 0.101999374 _92_ RTR  --- 2 message 32 [0 ffffffff 48 800] ------- [72:255 -1:255 32 0] 
r 0.101999385 _11_ RTR  --- 2 message 32 [0 ffffffff 48 800] ------- [72:255 -1:255 32 0] 
r 0.101999386 _49_ RTR  --- 2 message 32 [0 ffffffff 48 800] ------- [72:255 -1:255 32 0] 
r 0.101999386 _47_ RTR  --- 2 message 32 [0 ffffffff 48 800] ------- [72:255 -1:255 32 0] 
r 0.101999414 _75_ RTR  --- 2 message 32 [0 ffffffff 48 800] ------- [72:255 -1:255 32 0] 
r 0.101999428 _65_ RTR  --- 2 message 32 [0 ffffffff 48 800] ------- [72:255 -1:255 32 0] 
r 0.101999440 _21_ RTR  --- 2 message 32 [0 ffffffff 48 800] ------- [72:255 -1:255 32 0] 
r 0.101999480 _27_ RTR  --- 2 message 32 [0 ffffffff 48 800] ------- [72:255 -1:255 32 0] 
r 0.101999507 _13_ RTR  --- 2 message 32 [0 ffffffff 48 800] ------- [72:255 -1:255 32 0] 
r 0.101999524 _9_ RTR  --- 2 message 32 [0 ffffffff 48 800] ------- [72:255 -1:255 32 0] 
r 0.101999539 _97_ RTR  --- 2 message 32 [0 ffffffff 48 800] ------- [72:255 -1:255 32 0] 
r 0.101999539 _94_ RTR  --- 2 message 32 [0 ffffffff 48 800] ------- [72:255 -1:255 32 0] 
r 0.101999540 _1_ RTR  --- 2 message 32 [0 ffffffff 48 800] ------- [72:255 -1:255 32 0] 
r 0.101999542 _20_ RTR  --- 2 message 32 [0 ffffffff 48 800] ------- [72:255 -1:255 32 0] 
s 0.119088483 _7_ RTR  --- 3 message 32 [0 0 0 0] ------- [7:255 -1:255 32 0] 
r 0.121538538 _86_ RTR  --- 3 message 32 [0 ffffffff 7 800] ------- [7:255 -1:255 32 0] 
r 0.121538572 _76_ RTR  --- 3 message 32 [0 ffffffff 7 800] ------- [7:255 -1:255 32 0] 
r 0.121538635 _49_ RTR  --- 3 message 32 [0 ffffffff 7 800] ------- [7:255 -1:255 32 0] 
r 0.121538651 _29_ RTR  --- 3 message 32 [0 ffffffff 7 800] ------- [7:255 -1:255 32 0] 
r 0.121538659 _9_ RTR  --- 3 message 32 [0 ffffffff 7 800] ------- [7:255 -1:255 32 0] 
r 0.121538661 _97_ RTR  --- 3 message 32 [0 ffffffff 7 800] ------- [7:255 -1:255 32 0] 
r 0.121538667 _13_ RTR  --- 3 message 32 [0 ffffffff 7 800] ------- [7:255 -1:255 32 0] 
r 0.121538706 _8_ RTR  --- 3 message 32 [0 ffffffff 7 800] ------- [7:255 -1:255 32 0] 
r 0.121538725 _12_ RTR  --- 3 message 32 [0 ffffffff 7 800] ------- [7:255 -1:255 32 0] 
r 0.121538745 _1_ RTR  --- 3 message 32 [0 ffffffff 7 800] ------- [7:255 -1:255 32 0] 
r 0.121538760 _34_ RTR  --- 3 message 32 [0 ffffffff 7 800] ------- [7:255 -1:255 32 0] 
r 0.121538760 _35_ RTR  --- 3 message 32 [0 ffffffff 7 800] ------- [7:255 -1:255 32 0] 
r 0.121538771 _38_ RTR  --- 3 message 32 [0 ffffffff 7 800] ------- [7:255 -1:255 32 0] 
r 0.121538794 _54_ RTR  --- 3 message 32 [0 ffffffff 7 800] ------- [7:255 -1:255 32 0] 
r 0.121538806 _90_ RTR  --- 3 message 32 [0 ffffffff 7 800] ------- [7:255 -1:255 32 0] 
r 0.121538839 _87_ RTR  --- 3 message 32 [0 ffffffff 7 800] ------- [7:255 -1:255 32 0] 
r 0.121538858 _39_ RTR  --- 3 message 32 [0 ffffffff 7 800] ------- [7:255 -1:255 32 0] 
r 0.121538862 _74_ RTR  --- 3 message 32 [0 ffffffff 7 800] ------- [7:255 -1:255 32 0] 
r 0.121538865 _11_ RTR  --- 3 message 32 [0 ffffffff 7 800] ------- [7:255 -1:255 32 0] 
r 0.121538890 _41_ RTR  --- 3 message 32 [0 ffffffff 7 800] ------- [7:255 -1:255 32 0] 
r 0.121538901 _48_ RTR  --- 3 message 32 [0 ffffffff 7 800] ------- [7:255 -1:255 32 0] 
r 0.121538921 _51_ RTR  --- 3 message 32 [0 ffffffff 7 800] ------- [7:255 -1:255 32 0] 
r 0.121538955 _55_ RTR  --- 3 message 32 [0 ffffffff 7 800] ------- [7:255 -1:255 32 0] 
r 0.121538974 _33_ RTR  --- 3 message 32 [0 ffffffff 7 800] ------- [7:255 -1:255 32 0] 
r 0.121538984 _75_ RTR  --- 3 message 32 [0 ffffffff 7 800] ------- [7:255 -1:255 32 0] 
r 0.121539034 _2_ RTR  --- 3 message 32 [0 ffffffff 7 800] ------- [7:255 -1:255 32 0] 
r 0.121539041 _88_ RTR  --- 3 message 32 [0 ffffffff 7 800] ------- [7:255 -1:255 32 0] 
r 0.121539043 _59_ RTR  --- 3 message 32 [0 ffffffff 7 800] ------- [7:255 -1:255 32 0] 
r 0.121539064 _16_ RTR  --- 3 message 32 [0 ffffffff 7 800] ------- [7:255 -1:255 32 0] 
r 0.121539083 _82_ RTR  --- 3 message 32 [0 ffffffff 7 800] ------- [7:255 -1:255 32 0] 
r 0.121539099 _93_ RTR  --- 3 message 32 [0 ffffffff 7 800] ------- [7:255 -1:255 32 0] 
r 0.121539108 _68_ RTR  --- 3 message 32 [0 ffffffff 7 800] ------- [7:255 -1:255 32 0] 
r 0.121539112 _92_ RTR  --- 3 message 32 [0 ffffffff 7 800] ------- [7:255 -1:255 32 0] 
r 0.121539120 _67_ RTR  --- 3 message 32 [0 ffffffff 7 800] ------- [7:255 -1:255 32 0] 
r 0.121539128 _80_ RTR  --- 3 message 32 [0 ffffffff 7 800] ------- [7:255 -1:255 32 0] 
r 0.121539129 _72_ RTR  --- 3 message 32 [0 ffffffff 7 800] ------- [7:255 -1:255 32 0] 
r 0.121539131 _70_ RTR  --- 3 message 32 [0 ffffffff 7 800] ------- [7:255 -1:255 32 0] 
r 0.121539137 _37_ RTR  --- 3 message 32 [0 ffffffff 7 800] ------- [7:255 -1:255 32 0] 
r 0.121539183 _58_ RTR  --- 3 message 32 [0 ffffffff 7 800] ------- [7:255 -1:255 32 0] 
r 0.121539184 _30_ RTR  --- 3 message 32 [0 ffffffff 7 800] ------- [7:255 -1:255 32 0] 
r 0.121539205 _53_ RTR  --- 3 message 32 [0 ffffffff 7 800] ------- [7:255 -1:255 32 0] 
r 0.121539209 _43_ RTR  --- 3 message 32 [0 ffffffff 7 800] ------- [7:255 -1:255 32 0] 
r 0.121539240 _99_ RTR  --- 3 message 32 [0 ffffffff 7 800] ------- [7:255 -1:255 32 0] 
r 0.121539251 _5_ RTR  --- 3 message 32 [0 ffffffff 7 800] ------- [7:255 -1:255 32 0] 
r 0.121539277 _17_ RTR  --- 3 message 32 [0 ffffffff 7 800] ------- [7:255 -1:255 32 0] 
r 0.121539277 _36_ RTR  --- 3 message 32 [0 ffffffff 7 800] ------- [7:255 -1:255 32 0] 
r 0.121539285 _94_ RTR  --- 3 message 32 [0 ffffffff 7 800] ------- [7:255 -1:255 32 0] 
s 0.132279098 _92_ RTR  --- 4 message 32 [0 0 0 0] ------- [92:255 -1:255 32 0] 
s 0.134881937 _24_ RTR  --- 5 message 32 [0 0 0 0] ------- [24:255 -1:255 32 0] 
s 0.135421200 _48_ RTR  --- 6 message 32 [0 0 0 0] ------- [48:255 -1:255 32 0] 
r 0.136649176 _68_ RTR  --- 4 message 32 [0 ffffffff 5c 800] ------- [92:255 -1:255 32 0] 
r 0.136649269 _75_ RTR  --- 4 message 32 [0 ffffffff 5c 800] ------- [92:255 -1:255 32 0] 
r 0.136649274 _53_ RTR  --- 4 message 32 [0 ffffffff 5c 800] ------- [92:255 -1:255 32 0] 
r 0.136649286 _94_ RTR  --- 4 message 32 [0 ffffffff 5c 800] ------- [92:255 -1:255 32 0] 
r 0.136649322 _70_ RTR  --- 4 message 32 [0 ffffffff 5c 800] ------- [92:255 -1:255 32 0] 
r 0.136649324 _80_ RTR  --- 4 message 32 [0 ffffffff 5c 800] ------- [92:255 -1:255 32 0] 
r 0.136649334 _48_ RTR  --- 4 message 32 [0 ffffffff 5c 800] ------- [92:255 -1:255 32 0] 
r 0.136649336 _27_ RTR  --- 4 message 32 [0 ffffffff 5c 800] ------- [92:255 -1:255 32 0] 
r 0.136649363 _74_ RTR  --- 4 message 32 [0 ffffffff 5c 800] ------- [92:255 -1:255 32 0] 
r 0.136649366 _43_ RTR  --- 4 message 32 [0 ffffffff 5c 800] ------- [92:255 -1:255 32 0] 
r 0.136649372 _2_ RTR  --- 4 message 32 [0 ffffffff 5c 800] ------- [92:255 -1:255 32 0] 
r 0.136649374 _11_ RTR  --- 4 message 32 [0 ffffffff 5c 800] ------- [92:255 -1:255 32 0] 
r 0.136649377 _81_ RTR  --- 4 message 32 [0 ffffffff 5c 800] ------- [92:255 -1:255 32 0] 
r 0.136649427 _54_ RTR  --- 4 message 32 [0 ffffffff 5c 800] ------- [92:255 -1:255 32 0] 
r 0.136649453 _91_ RTR  --- 4 message 32 [0 ffffffff 5c 800] ------- [92:255 -1:255 32 0] 
r 0.136649508 _12_ RTR  --- 4 message 32 [0 ffffffff 5c 800] ------- [92:255 -1:255 32 0] 
r 0.136649542 _60_ RTR  --- 4 message 32 [0 ffffffff 5c 800] ------- [92:255 -1:255 32 0] 
r 0.136649575 _37_ RTR  --- 4 message 32 [0 ffffffff 5c 800] ------- [92:255 -1:255 32 0] 
r 0.136649578 _41_ RTR  --- 4 message 32 [0 ffffffff 5c 800] ------- [92:255 -1:255 32 0] 
r 0.136649591 _3_ RTR  --- 4 message 32 [0 ffffffff 5c 800] ------- [92:255 -1:255 32 0] 
r 0.136649612 _5_ RTR  --- 4 message 32 [0 ffffffff 5c 800] ------- [92:255 -1:255 32 0] 
r 0.136649615 _47_ RTR  --- 4 message 32 [0 ffffffff 5c 800] ------- [92:255 -1:255 32 0] 
r 0.136649642 _76_ RTR  --- 4 message 32 [0 ffffffff 5c 800] ------- [92:255 -1:255 32 0] 
r 0.136649642 _21_ RTR  --- 4 message 32 [0 ffffffff 5c 800] ------- [92:255 -1:255 32 0] 
r 0.136649642 _20_ RTR  --- 4 message 32 [0 ffffffff 5c 800] ------- [92:255 -1:255 32 0] 
r 0.136649643 _57_ RTR  --- 4 message 32 [0 ffffffff 5c 800] ------- [92:255 -1:255 32 0] 
r 0.136649655 _83_ RTR  --- 4 message 32 [0 ffffffff 5c 800] ------- [92:255 -1:255 32 0] 
r 0.136649669 _0_ RTR  --- 4 message 32 [0 ffffffff 5c 800] ------- [92:255 -1:255 32 0] 
r 0.136649675 _17_ RTR  --- 4 message 32 [0 ffffffff 5c 800] ------- [92:255 -1:255 32 0] 
r 0.136649679 _24_ RTR  --- 4 message 32 [0 ffffffff 5c 800] ------- [92:255 -1:255 32 0] 
r 0.136649685 _8_ RTR  --- 4 message 32 [0 ffffffff 5c 800] ------- [92:255 -1:255 32 0] 
r 0.136649689 _56_ RTR  --- 4 message 32 [0 ffffffff 5c 800] ------- [92:255 -1:255 32 0] 
r 0.136649695 _65_ RTR  --- 4 message 32 [0 ffffffff 5c 800] ------- [92:255 -1:255 32 0] 
r 0.136649705 _86_ RTR  --- 4 message 32 [0 ffffffff 5c 800] ------- [92:255 -1:255 32 0] 
r 0.136649708 _13_ RTR  --- 4 message 32 [0 ffffffff 5c 800] ------- [92:255 -1:255 32 0] 
r 0.136649717 _14_ RTR  --- 4 message 32 [0 ffffffff 5c 800] ------- [92:255 -1:255 32 0] 
r 0.136649718 _73_ RTR  --- 4 message 32 [0 ffffffff 5c 800] ------- [92:255 -1:255 32 0] 
r 0.136649722 _98_ RTR  --- 4 message 32 [0 ffffffff 5c 800] ------- [92:255 -1:255 32 0] 
r 0.136649723 _55_ RTR  --- 4 message 32 [0 ffffffff 5c 800] ------- [92:255 -1:255 32 0] 
r 0.136649727 _7_ RTR  --- 4 message 32 [0 ffffffff 5c 800] ------- [92:255 -1:255 32 0] 
r 0.136649736 _79_ RTR  --- 4 message 32 [0 ffffffff 5c 800] ------- [92:255 -1:255 32 0] 
r 0.136649738 _15_ RTR  --- 4 message 32 [0 ffffffff 5c 800] ------- [92:255 -1:255 32 0] 
r 0.136649741 _95_ RTR  --- 4 message 32 [0 ffffffff 5c 800] ------- [92:255 -1:255 32 0] 
r 0.136649744 _35_ RTR  --- 4 message 32 [0 ffffffff 5c 800] ------- [92:255 -1:255 32 0] 
r 0.136649745 _88_ RTR  --- 4 message 32 [0 ffffffff 5c 800] ------- [92:255 -1:255 32 0] 
r 0.136649757 _72_ RTR  --- 4 message 32 [0 ffffffff 5c 800] ------- [92:255 -1:255 32 0] 
r 0.136649757 _40_ RTR  --- 4 message 32 [0 ffffffff 5c 800] ------- [92:255 -1:255 32 0] 
r 0.136649760 _9_ RTR  --- 4 message 32 [0 ffffffff 5c 800] ------- [92:255 -1:255 32 0] 
r 0.136649766 _18_ RTR  --- 4 message 32 [0 ffffffff 5c 800] ------- [92:255 -1:255 32 0] 
r 0.136649772 _58_ RTR  --- 4 message 32 [0 ffffffff 5c 800] ------- [92:255 -1:255 32 0] 
r 0.136649778 _29_ RTR  --- 4 message 32 [0 ffffffff 5c 800] ------- [92:255 -1:255 32 0] 
r 0.136649787 _82_ RTR  --- 4 message 32 [0 ffffffff 5c 800] ------- [92:255 -1:255 32 0] 
r 0.136649801 _61_ RTR  --- 4 message 32 [0 ffffffff 5c 800] ------- [92:255 -1:255 32 0] 
r 0.136649812 _66_ RTR  --- 4 message 32 [0 ffffffff 5c 800] ------- [92:255 -1:255 32 0] 
r 0.136649812 _4_ RTR  --- 4 message 32 [0 ffffffff 5c 800] ------- [92:255 -1:255 32 0] 
r 0.136649820 _71_ RTR  --- 4 message 32 [0 ffffffff 5c 800] ------- [92:255 -1:255 32 0] 
r 0.136649839 _97_ RTR  --- 4 message 32 [0 ffffffff 5c 800] ------- [92:255 -1:255 32 0] 
r 0.136649861 _34_ RTR  --- 4 message 32 [0 ffffffff 5c 800] ------- [92:255 -1:255 32 0] 
r 0.136649868 _49_ RTR  --- 4 message 32 [0 ffffffff 5c 800] ------- [92:255 -1:255 32 0] 
r 0.136649877 _42_ RTR  --- 4 message 32 [0 ffffffff 5c 800] ------- [92:255 -1:255 32 0] 
r 0.136649921 _26_ RTR  --- 4 message 32 [0 ffffffff 5c 800] ------- [92:255 -1:255 32 0] 
r 0.138932001 _15_ RTR  --- 5 message 32 [0 ffffffff 18 800] ------- [24:255 -1:255 32 0] 
r 0.138932037 _40_ RTR  --- 5 message 32 [0 ffffffff 18 800] ------- [24:255 -1:255 32 0] 
r 0.138932063 _18_ RTR  --- 5 message 32 [0 ffffffff 18 800] ------- [24:255 -1:255 32 0] 
r 0.138932086 _4_ RTR  --- 5 message 32 [0 ffffffff 18 800] ------- [24:255 -1:255 32 0] 
r 0.138932113 _61_ RTR  --- 5 message 32 [0 ffffffff 18 800] ------- [24:255 -1:255 32 0] 
r 0.138932139 _79_ RTR  --- 5 message 32 [0 ffffffff 18 800] ------- [24:255 -1:255 32 0] 
r 0.138932164 _60_ RTR  --- 5 message 32 [0 ffffffff 18 800] ------- [24:255 -1:255 32 0] 
r 0.138932186 _91_ RTR  --- 5 message 32 [0 ffffffff 18 800] ------- [24:255 -1:255 32 0] 
r 0.138932197 _95_ RTR  --- 5 message 32 [0 ffffffff 18 800] ------- [24:255 -1:255 32 0] 
r 0.138932219 _77_ RTR  --- 5 message 32 [0 ffffffff 18 800] ------- [24:255 -1:255 32 0] 
r 0.138932220 _98_ RTR  --- 5 message 32 [0 ffffffff 18 800] ------- [24:255 -1:255 32 0] 
r 0.138932230 _83_ RTR  --- 5 message 32 [0 ffffffff 18 800] ------- [24:255 -1:255 32 0] 
r 0.138932247 _28_ RTR  --- 5 message 32 [0 ffffffff 18 800] ------- [24:255 -1:255 32 0] 
r 0.138932275 _20_ RTR  --- 5 message 32 [0 ffffffff 18 800] ------- [24:255 -1:255 32 0] 
r 0.138932310 _44_ RTR  --- 5 message 32 [0 ffffffff 18 800] ------- [24:255 -1:255 32 0] 
r 0.138932311 _25_ RTR  --- 5 message 32 [0 ffffffff 18 800] ------- [24:255 -1:255 32 0] 
r 0.138932339 _46_ RTR  --- 5 message 32 [0 ffffffff 18 800] ------- [24:255 -1:255 32 0] 
r 0.138932402 _69_ RTR  --- 5 message 32 [0 ffffffff 18 800] ------- [24:255 -1:255 32 0] 
r 0.138932417 _63_ RTR  --- 5 message 32 [0 ffffffff 18 800] ------- [24:255 -1:255 32 0] 
r 0.138932465 _23_ RTR  --- 5 message 32 [0 ffffffff 18 800] ------- [24:255 -1:255 32 0] 
r 0.138959240 _74_ RTR  --- 6 message 32 [0 ffffffff 30 800] ------- [48:255 -1:255 32 0] 
r 0.138959376 _2_ RTR  --- 6 message 32 [0 ffffffff 30 800] ------- [48:255 -1:255 32 0] 
r 0.138959377 _54_ RTR  --- 6 message 32 [0 ffffffff 30 800] ------- [48:255 -1:255 32 0] 
r 0.138959382 _12_ RTR  --- 6 message 32 [0 ffffffff 30 800] ------- [48:255 -1:255 32 0] 
r 0.138959385 _11_ RTR  --- 6 message 32 [0 ffffffff 30 800] ------- [48:255 -1:255 32 0] 
r 0.138959404 _75_ RTR  --- 6 message 32 [0 ffffffff 30 800] ------- [48:255 -1:255 32 0] 
r 0.138959411 _68_ RTR  --- 6 message 32 [0 ffffffff 30 800] ------- [48:255 -1:255 32 0] 
r 0.138959436 _92_ RTR  --- 6 message 32 [0 ffffffff 30 800] ------- [48:255 -1:255 32 0] 
r 0.138959442 _70_ RTR  --- 6 message 32 [0 ffffffff 30 800] ------- [48:255 -1:255 32 0] 
r 0.138959468 _41_ RTR  --- 6 message 32 [0 ffffffff 30 800] ------- [48:255 -1:255 32 0] 
r 0.138959529 _76_ RTR  --- 6 message 32 [0 ffffffff 30 800] ------- [48:255 -1:255 32 0] 
r 0.138959551 _8_ RTR  --- 6 message 32 [0 ffffffff 30 800] ------- [48:255 -1:255 32 0] 
r 0.138959570 _37_ RTR  --- 6 message 32 [0 ffffffff 30 800] ------- [48:255 -1:255 32 0] 
r 0.138959586 _86_ RTR  --- 6 message 32 [0 ffffffff 30 800] ------- [48:255 -1:255 32 0] 
r 0.138959611 _35_ RTR  --- 6 message 32 [0 ffffffff 30 800] ------- [48:255 -1:255 32 0] 
r 0.138959617 _55_ RTR  --- 6 message 32 [0 ffffffff 30 800] ------- [48:255 -1:255 32 0] 
r 0.138959618 _7_ RTR  --- 6 message 32 [0 ffffffff 30 800] ------- [48:255 -1:255 32 0] 
r 0.138959646 _29_ RTR  --- 6 message 32 [0 ffffffff 30 800] ------- [48:255 -1:255 32 0] 
r 0.138959649 _13_ RTR  --- 6 message 32 [0 ffffffff 30 800] ------- [48:255 -1:255 32 0] 
r 0.138959655 _5_ RTR  --- 6 message 32 [0 ffffffff 30 800] ------- [48:255 -1:255 32 0] 
r 0.138959693 _9_ RTR  --- 6 message 32 [0 ffffffff 30 800] ------- [48:255 -1:255 32 0] 
r 0.138959697 _72_ RTR  --- 6 message 32 [0 ffffffff 30 800] ------- [48:255 -1:255 32 0] 
r 0.138959728 _58_ RTR  --- 6 message 32 [0 ffffffff 30 800] ------- [48:255 -1:255 32 0] 
r 0.138959747 _49_ RTR  --- 6 message 32 [0 ffffffff 30 800] ------- [48:255 -1:255 32 0] 
r 0.138959758 _97_ RTR  --- 6 message 32 [0 ffffffff 30 800] ------- [48:255 -1:255 32 0] 
r 0.138959806 _34_ RTR  --- 6 message 32 [0 ffffffff 30 800] ------- [48:255 -1:255 32 0] 
r 0.138959879 _1_ RTR  --- 6 message 32 [0 ffffffff 30 800] ------- [48:255 -1:255 32 0] 
r 0.138959880 _38_ RTR  --- 6 message 32 [0 ffffffff 30 800] ------- [48:255 -1:255 32 0] 
r 0.138959934 _90_ RTR  --- 6 message 32 [0 ffffffff 30 800] ------- [48:255 -1:255 32 0] 
r 0.138959967 _87_ RTR  --- 6 message 32 [0 ffffffff 30 800] ------- [48:255 -1:255 32 0] 
r 0.138959984 _39_ RTR  --- 6 message 32 [0 ffffffff 30 800] ------- [48:255 -1:255 32 0] 
s 0.148529648 _39_ RTR  --- 7 message 32 [0 0 0 0] ------- [39:255 -1:255 32 0] 
r 0.150979673 _87_ RTR  --- 7 message 32 [0 ffffffff 27 800] ------- [39:255 -1:255 32 0] 
r 0.150979702 _90_ RTR  --- 7 message 32 [0 ffffffff 27 800] ------- [39:255 -1:255 32 0] 
r 0.150979750 _51_ RTR  --- 7 message 32 [0 ffffffff 27 800] ------- [39:255 -1:255 32 0] 
r 0.150979770 _38_ RTR  --- 7 message 32 [0 ffffffff 27 800] ------- [39:255 -1:255 32 0] 
r 0.150979811 _1_ RTR  --- 7 message 32 [0 ffffffff 27 800] ------- [39:255 -1:255 32 0] 
r 0.150979828 _33_ RTR  --- 7 message 32 [0 ffffffff 27 800] ------- [39:255 -1:255 32 0] 
r 0.150979882 _97_ RTR  --- 7 message 32 [0 ffffffff 27 800] ------- [39:255 -1:255 32 0] 
r 0.150979884 _16_ RTR  --- 7 message 32 [0 ffffffff 27 800] ------- [39:255 -1:255 32 0] 
r 0.150979903 _34_ RTR  --- 7 message 32 [0 ffffffff 27 800] ------- [39:255 -1:255 32 0] 
r 0.150979929 _59_ RTR  --- 7 message 32 [0 ffffffff 27 800] ------- [39:255 -1:255 32 0] 
r 0.150979959 _49_ RTR  --- 7 message 32 [0 ffffffff 27 800] ------- [39:255 -1:255 32 0] 
r 0.150979967 _9_ RTR  --- 7 message 32 [0 ffffffff 27 800] ------- [39:255 -1:255 32 0] 
r 0.150980022 _13_ RTR  --- 7 message 32 [0 ffffffff 27 800] ------- [39:255 -1:255 32 0] 
r 0.150980023 _7_ RTR  --- 7 message 32 [0 ffffffff 27 800] ------- [39:255 -1:255 32 0] 
r 0.150980069 _86_ RTR  --- 7 message 32 [0 ffffffff 27 800] ------- [39:255 -1:255 32 0] 
r 0.150980105 _29_ RTR  --- 7 message 32 [0 ffffffff 27 800] ------- [39:255 -1:255 32 0] 
r 0.150980110 _76_ RTR  --- 7 message 32 [0 ffffffff 27 800] ------- [39:255 -1:255 32 0] 
r 0.150980205 _93_ RTR  --- 7 message 32 [0 ffffffff 27 800] ------- [39:255 -1:255 32 0] 
r 0.150980212 _8_ RTR  --- 7 message 32 [0 ffffffff 27 800] ------- [39:255 -1:255 32 0] 
r 0.150980229 _67_ RTR  --- 7 message 32 [0 ffffffff 27 800] ------- [39:255 -1:255 32 0] 
r 0.150980235 _35_ RTR  --- 7 message 32 [0 ffffffff 27 800] ------- [39:255 -1:255 32 0] 
r 0.150980263 _12_ RTR  --- 7 message 32 [0 ffffffff 27 800] ------- [39:255 -1:255 32 0] 
r 0.150980293 _54_ RTR  --- 7 message 32 [0 ffffffff 27 800] ------- [39:255 -1:255 32 0] 
r 0.150980294 _88_ RTR  --- 7 message 32 [0 ffffffff 27 800] ------- [39:255 -1:255 32 0] 
r 0.150980307 _30_ RTR  --- 7 message 32 [0 ffffffff 27 800] ------- [39:255 -1:255 32 0] 
r 0.150980315 _82_ RTR  --- 7 message 32 [0 ffffffff 27 800] ------- [39:255 -1:255 32 0] 
r 0.150980351 _11_ RTR  --- 7 message 32 [0 ffffffff 27 800] ------- [39:255 -1:255 32 0] 
r 0.150980352 _99_ RTR  --- 7 message 32 [0 ffffffff 27 800] ------- [39:255 -1:255 32 0] 
r 0.150980392 _74_ RTR  --- 7 message 32 [0 ffffffff 27 800] ------- [39:255 -1:255 32 0] 
r 0.150980404 _36_ RTR  --- 7 message 32 [0 ffffffff 27 800] ------- [39:255 -1:255 32 0] 
r 0.150980417 _41_ RTR  --- 7 message 32 [0 ffffffff 27 800] ------- [39:255 -1:255 32 0] 
r 0.150980432 _48_ RTR  --- 7 message 32 [0 ffffffff 27 800] ------- [39:255 -1:255 32 0] 
r 0.150980448 _55_ RTR  --- 7 message 32 [0 ffffffff 27 800] ------- [39:255 -1:255 32 0] 
r 0.150980471 _75_ RTR  --- 7 message 32 [0 ffffffff 27 800] ------- [39:255 -1:255 32 0] 
s 0.152717775 _74_ RTR  --- 8 message 32 [0 0 0 0] ------- [74:255 -1:255 32 0] 
r 0.155487816 _48_ RTR  --- 8 message 32 [0 ffffffff 4a 800] ------- [74:255 -1:255 32 0] 
r 0.155487919 _54_ RTR  --- 8 message 32 [0 ffffffff 4a 800] ------- [74:255 -1:255 32 0] 
r 0.155487922 _12_ RTR  --- 8 message 32 [0 ffffffff 4a 800] ------- [74:255 -1:255 32 0] 
r 0.155487939 _11_ RTR  --- 8 message 32 [0 ffffffff 4a 800] ------- [74:255 -1:255 32 0] 
r 0.155487982 _75_ RTR  --- 8 message 32 [0 ffffffff 4a 800] ------- [74:255 -1:255 32 0] 
r 0.155487986 _2_ RTR  --- 8 message 32 [0 ffffffff 4a 800] ------- [74:255 -1:255 32 0] 
r 0.155488023 _68_ RTR  --- 8 message 32 [0 ffffffff 4a 800] ------- [74:255 -1:255 32 0] 
r 0.155488041 _92_ RTR  --- 8 message 32 [0 ffffffff 4a 800] ------- [74:255 -1:255 32 0] 
r 0.155488041 _41_ RTR  --- 8 message 32 [0 ffffffff 4a 800] ------- [74:255 -1:255 32 0] 
r 0.155488057 _70_ RTR  --- 8 message 32 [0 ffffffff 4a 800] ------- [74:255 -1:255 32 0] 
r 0.155488066 _76_ RTR  --- 8 message 32 [0 ffffffff 4a 800] ------- [74:255 -1:255 32 0] 
r 0.155488100 _8_ RTR  --- 8 message 32 [0 ffffffff 4a 800] ------- [74:255 -1:255 32 0] 